/*--------------------------------*- C++ -*----------------------------------*\
| =========                 |                                                 |
| \\      /  F ield         | OpenFOAM: The Open Source CFD Toolbox           |
|  \\    /   O peration     | Version:  v1906                                 |
|   \\  /    A nd           | Web:      www.OpenFOAM.com                      |
|    \\/     M anipulation  |                                                 |
\*---------------------------------------------------------------------------*/
FoamFile
{
    version     2.0;
    format      ascii;
    class       volVectorField;
    location    "1800";
    object      Ua;
}
// * * * * * * * * * * * * * * * * * * * * * * * * * * * * * * * * * * * * * //

dimensions      [0 1 -1 0 0 0 0];


internalField   nonuniform List<vector> 
344
(
(-1.02854e-22 7.96932e-09 0)
(-1.23772e-22 2.47582e-08 0)
(3.03967e-22 4.13584e-08 0)
(5.36436e-22 5.85193e-08 0)
(7.68594e-22 7.56039e-08 0)
(1.00038e-21 9.31769e-08 0)
(1.23172e-21 1.10745e-07 0)
(1.46252e-21 1.28707e-07 0)
(1.69267e-21 1.46754e-07 0)
(1.92211e-21 1.65103e-07 0)
(2.56598e-21 1.836e-07 0)
(3.20891e-21 2.02342e-07 0)
(3.85074e-21 2.21261e-07 0)
(4.69508e-21 2.40393e-07 0)
(5.53799e-21 2.59711e-07 0)
(6.17576e-21 2.79223e-07 0)
(6.60825e-21 2.98917e-07 0)
(7.03886e-21 3.18791e-07 0)
(7.46751e-21 3.38839e-07 0)
(7.89409e-21 3.59054e-07 0)
(8.3185e-21 3.79431e-07 0)
(8.74063e-21 3.99963e-07 0)
(8.95822e-21 4.20641e-07 0)
(9.17341e-21 4.41459e-07 0)
(9.38615e-21 4.62408e-07 0)
(9.59643e-21 4.83477e-07 0)
(9.8042e-21 5.0466e-07 0)
(1.00094e-20 5.25943e-07 0)
(1.02121e-20 5.47317e-07 0)
(1.04121e-20 5.68768e-07 0)
(1.06095e-20 5.90285e-07 0)
(1.08042e-20 6.11852e-07 0)
(1.09962e-20 6.33455e-07 0)
(1.11855e-20 6.55079e-07 0)
(1.13719e-20 6.76704e-07 0)
(1.15555e-20 6.98312e-07 0)
(1.17363e-20 7.19883e-07 0)
(1.17102e-20 7.41393e-07 0)
(1.16814e-20 7.62818e-07 0)
(1.16498e-20 7.84133e-07 0)
(1.16156e-20 8.05307e-07 0)
(1.15789e-20 8.26311e-07 0)
(1.15397e-20 8.47107e-07 0)
(1.14983e-20 8.67661e-07 0)
(1.12442e-20 8.87923e-07 0)
(1.08771e-20 9.08064e-07 0)
(1.0498e-20 9.28256e-07 0)
(1.01059e-20 9.48404e-07 0)
(9.69983e-21 9.68383e-07 0)
(9.27903e-21 9.8808e-07 0)
(8.8426e-21 1.00741e-06 0)
(8.53417e-21 1.02632e-06 0)
(8.36391e-21 1.04478e-06 0)
(8.18673e-21 1.06278e-06 0)
(8.16443e-21 1.08029e-06 0)
(8.14086e-21 1.09731e-06 0)
(8.116e-21 1.11382e-06 0)
(8.08983e-21 1.1298e-06 0)
(8.06234e-21 1.14523e-06 0)
(8.03347e-21 1.1601e-06 0)
(8.00319e-21 1.17439e-06 0)
(8.19587e-21 1.1881e-06 0)
(8.40047e-21 1.2012e-06 0)
(8.74438e-21 1.21369e-06 0)
(8.97823e-21 1.22554e-06 0)
(9.22961e-21 1.23675e-06 0)
(9.50124e-21 1.2473e-06 0)
(9.79652e-21 1.25718e-06 0)
(1.02101e-20 1.26638e-06 0)
(1.05674e-20 1.27488e-06 0)
(1.09657e-20 1.28265e-06 0)
(1.11693e-20 1.28969e-06 0)
(1.12629e-20 1.29595e-06 0)
(1.13727e-20 1.3014e-06 0)
(1.1505e-20 1.30598e-06 0)
(1.16711e-20 1.30952e-06 0)
(1.17329e-20 1.31147e-06 0)
(1.18311e-20 1.31299e-06 0)
(1.17155e-20 1.26237e-06 0)
(1.16219e-20 1.08018e-06 0)
(-1.70395e-18 -0.010386 0)
(-6.64854e-18 -0.0265208 0)
(-1.35804e-19 -0.0369934 0)
(-4.75479e-18 -0.0425662 0)
(-9.66984e-18 -0.0409356 0)
(-1.96643e-17 -0.0421225 0)
(-1.99149e-17 -0.0412464 0)
(-2.02192e-17 -0.041913 0)
(-2.13116e-17 -0.0414 0)
(-2.57478e-17 -0.0417945 0)
(-2.37216e-17 -0.0414933 0)
(-2.15537e-17 -0.0417214 0)
(-1.77428e-17 -0.0415497 0)
(-1.44273e-17 -0.0416785 0)
(-1.32978e-17 -0.0415821 0)
(-1.22371e-17 -0.0416542 0)
(-1.13728e-17 -0.0416002 0)
(-1.14277e-17 -0.0416407 0)
(-1.14414e-17 -0.0416103 0)
(-1.10028e-17 -0.0416331 0)
(-1.06118e-17 -0.041616 0)
(-1.02615e-17 -0.0416289 0)
(-9.94214e-18 -0.0416192 0)
(-9.64632e-18 -0.0416265 0)
(-9.36835e-18 -0.041621 0)
(-9.10361e-18 -0.0416251 0)
(-8.84821e-18 -0.041622 0)
(-8.59984e-18 -0.0416243 0)
(-8.3636e-18 -0.0416226 0)
(-8.18447e-18 -0.0416239 0)
(-8.00286e-18 -0.0416229 0)
(-7.81797e-18 -0.0416237 0)
(-7.62917e-18 -0.0416231 0)
(-7.43586e-18 -0.0416235 0)
(-7.23765e-18 -0.0416232 0)
(-7.03438e-18 -0.0416234 0)
(-6.82611e-18 -0.0416233 0)
(-6.61314e-18 -0.0416234 0)
(-6.3963e-18 -0.0416233 0)
(-6.17859e-18 -0.0416234 0)
(-5.95493e-18 -0.0416233 0)
(-5.72869e-18 -0.0416234 0)
(-5.50067e-18 -0.0416233 0)
(-5.27234e-18 -0.0416233 0)
(-5.04885e-18 -0.0416233 0)
(-4.85463e-18 -0.0416233 0)
(-4.5754e-18 -0.0416233 0)
(-4.31209e-18 -0.0416233 0)
(-4.13184e-18 -0.0416233 0)
(-3.91063e-18 -0.0416233 0)
(-3.6929e-18 -0.0416233 0)
(-3.47934e-18 -0.0416233 0)
(-3.27044e-18 -0.0416233 0)
(-3.06667e-18 -0.0416233 0)
(-2.86844e-18 -0.0416233 0)
(-2.67612e-18 -0.0416233 0)
(-2.49002e-18 -0.0416233 0)
(-2.31041e-18 -0.0416233 0)
(-2.13755e-18 -0.0416233 0)
(-1.97187e-18 -0.0416233 0)
(-1.81478e-18 -0.0416233 0)
(-1.67346e-18 -0.0416233 0)
(-1.50439e-18 -0.0416233 0)
(-1.37544e-18 -0.0416233 0)
(-1.24689e-18 -0.0416233 0)
(-1.13488e-18 -0.0416233 0)
(-1.00656e-18 -0.0416233 0)
(-8.96768e-19 -0.0416233 0)
(-7.97831e-19 -0.0416233 0)
(-7.16758e-19 -0.0416233 0)
(-5.97338e-19 -0.0416233 0)
(-5.04024e-19 -0.0416233 0)
(-4.54599e-19 -0.0416233 0)
(-4.20846e-19 -0.0416233 0)
(-3.02493e-19 -0.0416233 0)
(-2.03932e-19 -0.0416233 0)
(-1.97423e-19 -0.0416233 0)
(-1.78399e-19 -0.0416233 0)
(-8.85805e-20 -0.0416233 0)
(-1.47669e-20 -0.0416233 0)
(-1.7754e-20 -0.0416233 0)
(1.9284e-20 -0.0416233 0)
(4.90647e-20 -0.0416233 0)
(7.58328e-20 -0.0416233 0)
(9.94879e-20 -0.0416233 0)
(1.21446e-19 -0.0416233 0)
(1.37018e-19 -0.0416233 0)
(1.51233e-19 -0.0416233 0)
(1.66495e-19 -0.0416233 0)
(1.75673e-19 -0.0416233 0)
(1.84229e-19 -0.0416233 0)
(1.90853e-19 -0.0416233 0)
(1.95431e-19 -0.0416233 0)
(1.96695e-19 -0.0416233 0)
(1.64112e-19 -0.0416233 0)
(2.09356e-19 -0.0416233 0)
(2.39232e-19 -0.0416233 0)
(1.94904e-19 -0.0416233 0)
(1.50446e-19 -0.0416233 0)
(2.00839e-19 -0.0416233 0)
(2.03754e-19 -0.0416233 0)
(1.8626e-19 -0.0416233 0)
(1.70399e-19 -0.0416233 0)
(1.86065e-19 -0.0416233 0)
(2.23775e-19 -0.0416233 0)
(1.63214e-19 -0.0416233 0)
(1.15514e-19 -0.0416233 0)
(1.63828e-19 -0.0416233 0)
(1.67909e-19 -0.0416233 0)
(1.42523e-19 -0.0416233 0)
(1.68113e-19 -0.0416233 0)
(1.38772e-19 -0.0416233 0)
(1.35626e-19 -0.0416233 0)
(8.55697e-20 -0.0416233 0)
(1.17707e-19 -0.0416233 0)
(1.05109e-19 -0.0416233 0)
(1.08799e-19 -0.0416233 0)
(1.29679e-19 -0.0416233 0)
(9.0369e-20 -0.0416233 0)
(7.65716e-20 -0.0416233 0)
(9.08773e-20 -0.0416233 0)
(5.9657e-20 -0.0416233 0)
(7.46358e-20 -0.0416233 0)
(6.9976e-20 -0.0416233 0)
(6.87353e-20 -0.0416233 0)
(6.38914e-20 -0.0416233 0)
(5.75625e-20 -0.0416233 0)
(5.18856e-20 -0.0416233 0)
(5.30449e-20 -0.0416233 0)
(4.93866e-20 -0.0416233 0)
(4.58469e-20 -0.0416233 0)
(4.32225e-20 -0.0416233 0)
(3.9795e-20 -0.0416233 0)
(3.69685e-20 -0.0416233 0)
(3.64237e-20 -0.0416233 0)
(3.4223e-20 -0.0416233 0)
(3.76454e-20 -0.0416233 0)
(7.51229e-20 -0.0416233 0)
(2.1893e-20 -0.0416233 0)
(1.59505e-20 -0.0416233 0)
(-2.42753e-20 -0.0416233 0)
(2.44137e-20 -0.0416233 0)
(1.97315e-20 -0.0416233 0)
(1.86347e-20 -0.0416233 0)
(1.82887e-20 -0.0416233 0)
(2.46345e-20 -0.0416233 0)
(6.19675e-20 -0.0416233 0)
(1.29556e-21 -0.0416233 0)
(-3.28287e-20 -0.0416233 0)
(1.16257e-20 -0.0416233 0)
(1.07463e-20 -0.0416233 0)
(1.00927e-20 -0.0416233 0)
(1.02726e-20 -0.0416233 0)
(1.785e-20 -0.0416233 0)
(5.54721e-20 -0.0416233 0)
(-6.57184e-21 -0.0416233 0)
(-3.81402e-20 -0.0416233 0)
(6.27956e-21 -0.0416233 0)
(5.6262e-21 -0.0416233 0)
(5.36059e-21 -0.0416233 0)
(6.05035e-21 -0.0416233 0)
(1.27249e-20 -0.0416233 0)
(5.14027e-20 -0.0416233 0)
(8.52055e-23 -0.0416233 0)
(-5.5634e-21 -0.0416233 0)
(-4.14387e-20 -0.0416233 0)
(2.7314e-21 -0.0416233 0)
(2.67875e-21 -0.0416233 0)
(2.61743e-21 -0.0416233 0)
(3.4961e-21 -0.0416233 0)
(1.10373e-20 -0.0416233 0)
(4.93207e-20 -0.0416233 0)
(-1.15292e-20 -0.0416233 0)
(-4.3026e-20 -0.0416233 0)
(1.28811e-21 -0.0416233 0)
(1.33245e-21 -0.0416233 0)
(1.31446e-21 -0.0416233 0)
(2.12047e-21 -0.0416233 0)
(1.03133e-20 -0.0416233 0)
(4.5323e-20 -0.0416233 0)
(-8.80084e-21 -0.0416233 0)
(-4.54278e-20 -0.0416233 0)
(1.62307e-21 -0.0416233 0)
(6.76214e-22 -0.0416233 0)
(7.98444e-22 -0.0416233 0)
(2.14537e-21 -0.0416233 0)
(8.7143e-21 -0.0416233 0)
(4.56445e-20 -0.0416233 0)
(-1.09727e-21 -0.0416233 0)
(-6.23189e-21 -0.0416233 0)
(-4.76825e-20 -0.0416233 0)
(1.3745e-21 -0.0416233 0)
(1.52983e-22 -0.0416233 0)
(4.74026e-22 -0.0416233 0)
(1.41843e-21 -0.0416233 0)
(9.56172e-21 -0.0416233 0)
(4.78611e-20 -0.0416233 0)
(-1.35692e-20 -0.0416233 0)
(-4.75552e-20 -0.0416233 0)
(1.06591e-20 -0.0416233 0)
(5.04801e-20 -0.0416233 0)
(-2.723e-21 -0.0416233 0)
(9.80826e-23 -0.0416233 0)
(9.3475e-23 -0.0416233 0)
(8.42687e-23 -0.0416233 0)
(7.6621e-23 -0.0416233 0)
(6.88581e-23 -0.0416233 0)
(6.21089e-23 -0.0416233 0)
(5.60281e-23 -0.0416233 0)
(5.02597e-23 -0.0416233 0)
(4.5786e-23 -0.0416233 0)
(4.13573e-23 -0.0416233 0)
(3.7103e-23 -0.0416233 0)
(3.34174e-23 -0.0416233 0)
(3.00024e-23 -0.0416233 0)
(2.72826e-23 -0.0416233 0)
(2.43159e-23 -0.0416233 0)
(2.18993e-23 -0.0416233 0)
(1.95349e-23 -0.0416233 0)
(1.78479e-23 -0.0416233 0)
(1.57549e-23 -0.0416233 0)
(1.43654e-23 -0.0416233 0)
(1.27278e-23 -0.0416233 0)
(1.14484e-23 -0.0416233 0)
(1.0254e-23 -0.0416233 0)
(9.22296e-24 -0.0416233 0)
(8.15797e-24 -0.0416233 0)
(7.37658e-24 -0.0416233 0)
(6.59025e-24 -0.0416233 0)
(5.88791e-24 -0.0416233 0)
(5.25572e-24 -0.0416233 0)
(4.67996e-24 -0.0416233 0)
(4.16217e-24 -0.0416233 0)
(3.7308e-24 -0.0416233 0)
(3.35142e-24 -0.0416233 0)
(2.95504e-24 -0.0416233 0)
(2.62733e-24 -0.0416233 0)
(2.35947e-24 -0.0416233 0)
(2.10835e-24 -0.0416233 0)
(1.84543e-24 -0.0416233 0)
(1.64969e-24 -0.0416233 0)
(1.46989e-24 -0.0416233 0)
(1.31473e-24 -0.0416233 0)
(1.15996e-24 -0.0416233 0)
(1.0249e-24 -0.0416233 0)
(9.1472e-25 -0.0416233 0)
(8.15644e-25 -0.0416233 0)
(7.21617e-25 -0.0416233 0)
(6.40226e-25 -0.0416233 0)
(5.68883e-25 -0.0416233 0)
(5.0675e-25 -0.0416233 0)
(4.51649e-25 -0.0416233 0)
(4.03449e-25 -0.0416233 0)
(3.62044e-25 -0.0416233 0)
(3.24224e-25 -0.0416233 0)
(2.9133e-25 -0.0416233 0)
(2.65461e-25 -0.0416233 0)
(2.43384e-25 -0.0416233 0)
(2.25695e-25 -0.0416233 0)
(2.08889e-25 -0.0416233 0)
(1.9691e-25 -0.0416233 0)
(1.88953e-25 -0.0416233 0)
(1.83717e-25 -0.0416233 0)
(1.81045e-25 -0.0416233 0)
)
;

boundaryField
{
    inlet
    {
        type            cyclic;
    }
    outlet
    {
        type            cyclic;
    }
    top
    {
        type            zeroGradient;
    }
    bottom
    {
        type            fixedValue;
        value           uniform (0 0 0);
    }
    frontAndBackPlanes
    {
        type            empty;
    }
}


// ************************************************************************* //
