/*--------------------------------*- C++ -*----------------------------------*\
| =========                 |                                                 |
| \\      /  F ield         | OpenFOAM: The Open Source CFD Toolbox           |
|  \\    /   O peration     | Version:  v1906                                 |
|   \\  /    A nd           | Web:      www.OpenFOAM.com                      |
|    \\/     M anipulation  |                                                 |
\*---------------------------------------------------------------------------*/
FoamFile
{
    version     2.0;
    format      ascii;
    class       volVectorField;
    location    "1800";
    object      Ub;
}
// * * * * * * * * * * * * * * * * * * * * * * * * * * * * * * * * * * * * * //

dimensions      [0 1 -1 0 0 0 0];


internalField   nonuniform List<vector> 
344
(
(6.56961e-22 -1.14968e-08 0)
(4.40367e-21 -3.455e-08 0)
(-3.48681e-21 -5.81688e-08 0)
(5.21813e-22 -8.18133e-08 0)
(7.68537e-22 -1.05964e-07 0)
(1.00047e-21 -1.30235e-07 0)
(1.23172e-21 -1.54931e-07 0)
(1.46277e-21 -1.79805e-07 0)
(1.80741e-21 -2.05035e-07 0)
(3.21935e-20 -2.30486e-07 0)
(2.68087e-21 -2.56242e-07 0)
(3.28576e-21 -2.82239e-07 0)
(2.41205e-20 -3.08509e-07 0)
(4.68172e-21 -3.35022e-07 0)
(-1.83378e-20 -3.61785e-07 0)
(-1.94736e-20 -3.88783e-07 0)
(6.5122e-21 -4.16013e-07 0)
(7.0385e-21 -4.43465e-07 0)
(7.46751e-21 -4.7113e-07 0)
(7.89358e-21 -4.98998e-07 0)
(8.18305e-21 -5.27062e-07 0)
(-2.78141e-20 -5.55307e-07 0)
(8.82296e-21 -5.83725e-07 0)
(9.17291e-21 -6.12302e-07 0)
(9.38615e-21 -6.41026e-07 0)
(9.59643e-21 -6.69882e-07 0)
(9.80419e-21 -6.98857e-07 0)
(1.00094e-20 -7.27932e-07 0)
(1.02121e-20 -7.57093e-07 0)
(1.04121e-20 -7.8632e-07 0)
(1.06095e-20 -8.15593e-07 0)
(1.08042e-20 -8.44893e-07 0)
(1.09962e-20 -8.74194e-07 0)
(1.11855e-20 -9.03475e-07 0)
(1.13711e-20 -9.32708e-07 0)
(1.13212e-20 -9.61864e-07 0)
(-5.37456e-20 -9.90913e-07 0)
(1.14763e-20 -1.01982e-06 0)
(1.16805e-20 -1.04855e-06 0)
(1.16498e-20 -1.07707e-06 0)
(1.16156e-20 -1.10533e-06 0)
(1.15779e-20 -1.13328e-06 0)
(1.12633e-20 -1.16087e-06 0)
(-6.73372e-20 -1.18804e-06 0)
(-2.92805e-20 -1.21485e-06 0)
(1.07357e-20 -1.2414e-06 0)
(1.04975e-20 -1.26776e-06 0)
(1.01059e-20 -1.29392e-06 0)
(9.70032e-21 -1.31974e-06 0)
(9.43503e-21 -1.34506e-06 0)
(5.45078e-20 -1.36977e-06 0)
(5.50218e-20 -1.39378e-06 0)
(8.68441e-21 -1.41706e-06 0)
(5.60968e-20 -1.43957e-06 0)
(8.32544e-21 -1.46127e-06 0)
(8.14139e-21 -1.48215e-06 0)
(8.116e-21 -1.50216e-06 0)
(8.08983e-21 -1.52127e-06 0)
(8.06289e-21 -1.53945e-06 0)
(8.20406e-21 -1.55667e-06 0)
(6.06162e-20 -1.57289e-06 0)
(8.45146e-21 -1.58806e-06 0)
(3.51607e-20 -1.60215e-06 0)
(-1.82607e-20 -1.61511e-06 0)
(8.89288e-21 -1.62689e-06 0)
(9.22953e-21 -1.63744e-06 0)
(9.54399e-21 -1.64667e-06 0)
(2.36993e-20 -1.65452e-06 0)
(-3.76812e-21 -1.66087e-06 0)
(1.04411e-20 -1.66559e-06 0)
(-1.73503e-20 -1.66851e-06 0)
(-3.0905e-21 -1.66938e-06 0)
(1.12214e-20 -1.66782e-06 0)
(1.13726e-20 -1.66329e-06 0)
(1.14859e-20 -1.65468e-06 0)
(4.60409e-21 -1.63966e-06 0)
(1.17059e-20 -1.61621e-06 0)
(8.31984e-21 -1.49969e-06 0)
(1.48298e-20 -3.16686e-06 0)
(-1.34752e-22 0.000231813 0)
(-1.28569e-18 0.00338333 0)
(-3.19468e-18 -0.00243187 0)
(4.31364e-19 0.00169674 0)
(-3.69098e-18 -0.00117174 0)
(-7.42949e-18 0.000824785 0)
(-1.96373e-17 -0.000601531 0)
(-1.98472e-17 0.000453458 0)
(-1.99746e-17 -0.000348179 0)
(-2.03163e-17 0.000268205 0)
(-2.62142e-17 -0.000205421 0)
(-2.42076e-17 0.00015604 0)
(-2.24101e-17 -0.000117693 0)
(-1.84822e-17 8.83596e-05 0)
(-1.46748e-17 -6.61803e-05 0)
(-1.35348e-17 4.95333e-05 0)
(-1.24297e-17 -3.70864e-05 0)
(-1.13585e-17 2.77926e-05 0)
(-1.14251e-17 -2.0852e-05 0)
(-1.15407e-17 1.5663e-05 0)
(-1.10903e-17 -1.17775e-05 0)
(-1.06902e-17 8.86291e-06 0)
(-1.03329e-17 -6.67295e-06 0)
(-1.00083e-17 5.02508e-06 0)
(-9.70848e-18 -3.78379e-06 0)
(-9.42755e-18 2.84817e-06 0)
(-9.16071e-18 -2.14284e-06 0)
(-8.90373e-18 1.61125e-06 0)
(-8.65261e-18 -1.21082e-06 0)
(-8.4035e-18 9.09434e-07 0)
(-8.22507e-18 -6.8278e-07 0)
(-8.04419e-18 5.12493e-07 0)
(-7.86018e-18 -3.84665e-07 0)
(-7.67238e-18 2.88809e-07 0)
(-7.48017e-18 -2.16997e-07 0)
(-7.2831e-18 1.63287e-07 0)
(-7.08094e-18 -1.23196e-07 0)
(-6.87371e-18 9.3396e-08 0)
(-6.66161e-18 -7.13843e-08 0)
(-6.44497e-18 5.53292e-08 0)
(-6.2286e-18 -4.21516e-08 0)
(-6.00551e-18 3.13209e-08 0)
(-5.77967e-18 -2.25851e-08 0)
(-5.55175e-18 1.57191e-08 0)
(-5.32247e-18 -1.04732e-08 0)
(-5.09256e-18 6.6249e-09 0)
(-4.86276e-18 -3.92754e-09 0)
(-4.63378e-18 2.16126e-09 0)
(-4.40652e-18 -1.08783e-09 0)
(-4.18148e-18 5.03578e-10 0)
(-3.95931e-18 -2.13607e-10 0)
(-3.74066e-18 8.75141e-11 0)
(-3.52605e-18 -3.31054e-11 0)
(-3.316e-18 1.34496e-11 0)
(-3.11099e-18 -4.5242e-12 0)
(-2.91145e-18 1.9504e-12 0)
(-2.71774e-18 -5.20157e-13 0)
(-2.53018e-18 3.40811e-13 0)
(-2.34906e-18 -2.99795e-13 0)
(-2.1746e-18 -7.50456e-14 0)
(-2.00698e-18 -1.44518e-13 0)
(-1.84635e-18 -1.14845e-13 0)
(-1.69279e-18 -1.31821e-13 0)
(-1.54636e-18 -1.21718e-13 0)
(-1.40709e-18 -1.10606e-13 0)
(-1.27495e-18 -1.05606e-13 0)
(-1.14989e-18 -1.11874e-13 0)
(-1.03184e-18 -1.08559e-13 0)
(-9.20695e-19 -1.0226e-13 0)
(-8.16321e-19 -9.65652e-14 0)
(-7.18569e-19 -9.31153e-14 0)
(-6.2727e-19 -8.52009e-14 0)
(-5.42237e-19 -7.33191e-14 0)
(-4.63269e-19 -6.75853e-14 0)
(-3.90156e-19 -6.93396e-14 0)
(-3.22674e-19 -6.649e-14 0)
(-2.60594e-19 -6.19274e-14 0)
(-2.03682e-19 -5.76992e-14 0)
(-1.51698e-19 -5.49576e-14 0)
(-1.04401e-19 -4.97187e-14 0)
(-6.15488e-20 -4.30303e-14 0)
(-2.29008e-20 -3.7421e-14 0)
(1.17825e-20 -3.42396e-14 0)
(4.27373e-20 -2.85124e-14 0)
(7.01955e-20 -2.32282e-14 0)
(9.43842e-20 -1.66779e-14 0)
(1.15524e-19 -1.2538e-14 0)
(1.33831e-19 -9.32087e-16 0)
(1.49511e-19 -7.2709e-15 0)
(1.62766e-19 -4.1838e-15 0)
(1.73787e-19 7.66218e-15 0)
(1.82759e-19 2.09243e-15 0)
(1.89857e-19 2.75799e-15 0)
(1.95248e-19 2.02665e-15 0)
(1.99092e-19 2.20167e-15 0)
(2.01537e-19 1.80231e-15 0)
(2.02726e-19 1.47236e-15 0)
(2.02792e-19 1.22511e-15 0)
(2.01858e-19 1.21386e-15 0)
(2.00042e-19 1.00954e-15 0)
(1.97452e-19 8.87098e-16 0)
(1.94188e-19 7.43261e-16 0)
(1.90344e-19 6.28564e-16 0)
(1.86006e-19 5.15432e-16 0)
(1.81252e-19 4.15482e-16 0)
(1.76155e-19 3.27446e-16 0)
(1.70782e-19 2.68485e-16 0)
(1.65192e-19 2.02077e-16 0)
(1.5944e-19 1.69317e-16 0)
(1.53575e-19 1.28188e-16 0)
(1.47641e-19 8.97753e-17 0)
(1.41678e-19 6.98788e-17 0)
(1.35719e-19 7.16341e-17 0)
(1.29797e-19 5.78908e-17 0)
(1.23938e-19 2.79943e-17 0)
(1.18165e-19 1.14912e-17 0)
(1.12499e-19 1.08304e-17 0)
(1.06957e-19 4.49439e-18 0)
(1.01554e-19 1.02726e-17 0)
(9.63001e-20 -5.05292e-17 0)
(9.12065e-20 3.62054e-17 0)
(8.62803e-20 4.01311e-17 0)
(8.15273e-20 -4.24791e-17 0)
(7.69515e-20 2.15025e-17 0)
(7.25554e-20 9.60752e-18 0)
(6.83402e-20 1.39475e-17 0)
(6.4306e-20 1.25016e-17 0)
(6.04518e-20 1.34219e-17 0)
(5.67756e-20 1.22063e-17 0)
(5.32748e-20 1.19197e-17 0)
(4.99461e-20 1.18221e-17 0)
(4.67855e-20 1.19592e-17 0)
(4.37888e-20 1.11002e-17 0)
(4.09512e-20 1.03835e-17 0)
(3.82676e-20 9.95957e-18 0)
(3.57328e-20 8.97933e-18 0)
(3.33413e-20 7.91868e-18 0)
(3.10876e-20 7.12842e-18 0)
(2.8966e-20 6.83134e-18 0)
(2.69709e-20 6.37339e-18 0)
(2.50965e-20 5.82301e-18 0)
(2.33374e-20 5.28379e-18 0)
(2.1688e-20 4.7977e-18 0)
(2.01427e-20 4.24756e-18 0)
(1.86964e-20 3.6836e-18 0)
(1.73438e-20 3.13298e-18 0)
(1.60799e-20 2.56522e-18 0)
(1.48998e-20 1.97867e-18 0)
(1.37989e-20 1.34516e-18 0)
(1.27724e-20 6.46381e-19 0)
(1.18162e-20 -2.19242e-19 0)
(1.0926e-20 -6.39657e-19 0)
(1.00979e-20 2.88442e-18 0)
(9.32796e-21 2.73104e-18 0)
(8.61261e-21 -1.13906e-18 0)
(7.94839e-21 -1.04373e-18 0)
(7.33202e-21 -5.64117e-19 0)
(6.76038e-21 -2.23341e-19 0)
(6.23055e-21 3.4825e-20 0)
(5.73973e-21 2.21516e-19 0)
(5.2853e-21 3.45579e-19 0)
(4.86478e-21 4.69297e-19 0)
(4.47586e-21 6.29728e-19 0)
(4.11632e-21 7.29947e-19 0)
(3.78413e-21 7.81144e-19 0)
(3.47734e-21 8.21555e-19 0)
(3.19416e-21 8.68874e-19 0)
(2.93287e-21 8.62119e-19 0)
(2.69191e-21 8.20752e-19 0)
(2.46979e-21 8.18686e-19 0)
(2.26512e-21 8.59806e-19 0)
(2.07662e-21 8.63611e-19 0)
(1.90308e-21 8.20422e-19 0)
(1.74339e-21 7.79166e-19 0)
(1.59649e-21 7.29696e-19 0)
(1.46142e-21 6.30792e-19 0)
(1.33727e-21 4.85235e-19 0)
(1.22321e-21 3.67138e-19 0)
(1.11846e-21 2.45897e-19 0)
(1.0223e-21 7.51902e-20 0)
(9.34051e-22 -1.82824e-19 0)
(8.53101e-22 -4.68703e-19 0)
(7.78873e-22 -8.94792e-19 0)
(7.10834e-22 -1.14847e-18 0)
(6.48493e-22 2.69193e-18 0)
(5.91393e-22 2.69067e-18 0)
(5.39115e-22 -1.15195e-18 0)
(4.91269e-22 -9.00829e-19 0)
(4.47496e-22 -4.76605e-19 0)
(4.07465e-22 -1.93296e-19 0)
(3.7087e-22 6.23575e-20 0)
(3.37429e-22 2.30499e-19 0)
(3.06881e-22 3.51344e-19 0)
(2.78987e-22 4.66761e-19 0)
(2.53527e-22 6.08744e-19 0)
(2.30297e-22 7.05051e-19 0)
(2.0911e-22 7.54628e-19 0)
(1.89794e-22 7.93659e-19 0)
(1.72191e-22 8.35032e-19 0)
(1.56156e-22 8.2956e-19 0)
(1.41554e-22 7.94502e-19 0)
(1.28263e-22 7.94564e-19 0)
(1.16171e-22 8.29747e-19 0)
(1.05173e-22 8.35329e-19 0)
(9.51754e-23 7.94053e-19 0)
(8.60903e-23 7.55119e-19 0)
(7.78381e-23 7.05604e-19 0)
(7.03457e-23 6.09375e-19 0)
(6.3546e-23 4.67336e-19 0)
(5.73778e-23 3.51977e-19 0)
(5.17848e-23 2.31134e-19 0)
(4.67156e-23 6.30896e-20 0)
(4.21233e-23 -1.93022e-19 0)
(3.79648e-23 -4.76046e-19 0)
(3.42008e-23 -9.01737e-19 0)
(3.07956e-23 -1.14746e-18 0)
(2.77163e-23 2.69328e-18 0)
(2.4933e-23 2.69687e-18 0)
(2.24186e-23 -1.13629e-18 0)
(2.01479e-23 -8.8229e-19 0)
(1.80985e-23 -4.47022e-19 0)
(1.62497e-23 -1.54516e-19 0)
(1.45825e-23 1.11773e-19 0)
(1.308e-23 2.9281e-19 0)
(1.17265e-23 4.30035e-19 0)
(1.05078e-23 5.57773e-19 0)
(9.41111e-24 7.08882e-19 0)
(8.42464e-24 8.19145e-19 0)
(7.53778e-24 8.89189e-19 0)
(6.74089e-24 9.47572e-19 0)
(6.0252e-24 1.01053e-18 0)
(5.38279e-24 1.03787e-18 0)
(4.80644e-24 1.04548e-18 0)
(4.28964e-24 1.07463e-18 0)
(3.82649e-24 1.13043e-18 0)
(3.41164e-24 1.16966e-18 0)
(3.04028e-24 1.18999e-18 0)
(2.70801e-24 1.20693e-18 0)
(2.41091e-24 1.22367e-18 0)
(2.14542e-24 1.22549e-18 0)
(1.90831e-24 1.21383e-18 0)
(1.69669e-24 1.21386e-18 0)
(1.50795e-24 1.22559e-18 0)
(1.33974e-24 1.22379e-18 0)
(1.18994e-24 1.20699e-18 0)
(1.05666e-24 1.19001e-18 0)
(9.38183e-25 1.1696e-18 0)
(8.32982e-25 1.13004e-18 0)
(7.39685e-25 1.07369e-18 0)
(6.57063e-25 1.04438e-18 0)
(5.84021e-25 1.03681e-18 0)
(5.19581e-25 1.00902e-18 0)
(4.62873e-25 9.44795e-19 0)
(4.13126e-25 8.85181e-19 0)
(3.69658e-25 8.13493e-19 0)
(3.3187e-25 7.00555e-19 0)
(2.99236e-25 5.45543e-19 0)
(2.713e-25 4.13858e-19 0)
(2.47669e-25 2.71825e-19 0)
(2.28008e-25 8.46739e-20 0)
(2.12038e-25 -1.88378e-19 0)
(1.99532e-25 -4.91409e-19 0)
(1.9031e-25 -9.32332e-19 0)
(1.84239e-25 -1.19362e-18 0)
(1.81233e-25 2.72078e-18 0)
)
;

boundaryField
{
    inlet
    {
        type            cyclic;
    }
    outlet
    {
        type            cyclic;
    }
    top
    {
        type            zeroGradient;
    }
    bottom
    {
        type            fixedValue;
        value           uniform (0 0 0);
    }
    frontAndBackPlanes
    {
        type            empty;
    }
}


// ************************************************************************* //
