/*--------------------------------*- C++ -*----------------------------------*\
| =========                 |                                                 |
| \\      /  F ield         | OpenFOAM: The Open Source CFD Toolbox           |
|  \\    /   O peration     | Version:  v2006                                 |
|   \\  /    A nd           | Website:  www.openfoam.com                      |
|    \\/     M anipulation  |                                                 |
\*---------------------------------------------------------------------------*/
FoamFile
{
    version     2.0;
    format      ascii;
    class       volScalarField;
    location    "160";
    object      nuEffb;
}
// * * * * * * * * * * * * * * * * * * * * * * * * * * * * * * * * * * * * * //

dimensions      [0 2 -1 0 0 0 0];


internalField   nonuniform List<scalar> 
120
(
0.000127507
0.000127317
0.000127107
0.000126869
0.000126593
0.000126264
0.000125867
0.000125393
0.000124852
0.000124284
0.000123449
0.000109279
9.98329e-05
9.65302e-05
9.53658e-05
9.49395e-05
9.47935e-05
9.47459e-05
9.47311e-05
9.47267e-05
9.47255e-05
9.47251e-05
9.47251e-05
9.4725e-05
9.4725e-05
9.4725e-05
9.47251e-05
9.4725e-05
9.4725e-05
9.4725e-05
9.4725e-05
9.4725e-05
9.4725e-05
9.4725e-05
9.4725e-05
9.4725e-05
9.4725e-05
9.4725e-05
9.4725e-05
9.4725e-05
9.4725e-05
9.4725e-05
9.4725e-05
9.4725e-05
9.4725e-05
9.4725e-05
9.4725e-05
9.4725e-05
9.4725e-05
9.4725e-05
9.4725e-05
9.4725e-05
9.4725e-05
9.4725e-05
9.4725e-05
9.4725e-05
9.4725e-05
9.4725e-05
9.4725e-05
9.4725e-05
9.4725e-05
9.4725e-05
9.4725e-05
9.4725e-05
9.4725e-05
9.4725e-05
9.4725e-05
9.4725e-05
9.4725e-05
9.4725e-05
9.4725e-05
9.4725e-05
9.4725e-05
9.4725e-05
9.4725e-05
9.4725e-05
9.4725e-05
9.4725e-05
9.4725e-05
9.4725e-05
9.4725e-05
9.4725e-05
9.4725e-05
9.4725e-05
9.4725e-05
9.4725e-05
9.47249e-05
9.47249e-05
9.47249e-05
9.47249e-05
9.47249e-05
9.47249e-05
9.47249e-05
9.47249e-05
9.47249e-05
9.47248e-05
9.47253e-05
9.47237e-05
9.47292e-05
9.47107e-05
9.47498e-05
9.47534e-05
9.45046e-05
9.55079e-05
8.69784e-05
9.98762e-05
2.24812e-05
2.10513e-05
2.105e-05
2.105e-05
2.105e-05
2.105e-05
2.105e-05
2.105e-05
2.105e-05
2.105e-05
2.105e-05
2.105e-05
2.105e-05
2.105e-05
)
;

boundaryField
{
    inlet
    {
        type            cyclic;
    }
    outlet
    {
        type            cyclic;
    }
    top
    {
        type            calculated;
        value           uniform 2.105e-05;
    }
    bottom
    {
        type            calculated;
        value           uniform 0.000127507;
    }
    frontAndBackPlanes
    {
        type            empty;
    }
}


// ************************************************************************* //
