/*--------------------------------*- C++ -*----------------------------------*\
| =========                 |                                                 |
| \\      /  F ield         | OpenFOAM: The Open Source CFD Toolbox           |
|  \\    /   O peration     | Version:  v2006                                 |
|   \\  /    A nd           | Website:  www.openfoam.com                      |
|    \\/     M anipulation  |                                                 |
\*---------------------------------------------------------------------------*/
FoamFile
{
    version     2.0;
    format      ascii;
    class       volScalarField;
    location    "160";
    object      p;
}
// * * * * * * * * * * * * * * * * * * * * * * * * * * * * * * * * * * * * * //

dimensions      [1 -1 -2 0 0 0 0];


internalField   nonuniform List<scalar> 
120
(
21.2034
16.5406
11.8746
7.20519
2.53202
-2.1453
-6.82738
-11.5143
-16.2077
-20.9144
-25.6569
-30.4108
-35.3179
-40.2281
-45.1349
-50.0405
-54.9456
-59.8507
-64.7557
-69.6607
-74.5657
-79.4707
-84.3757
-89.2807
-94.1857
-99.0907
-103.996
-108.901
-113.806
-118.711
-123.616
-128.521
-133.426
-138.331
-143.236
-148.141
-153.046
-157.951
-162.856
-167.761
-172.666
-177.571
-182.476
-187.381
-192.286
-197.191
-202.096
-207.001
-211.906
-216.811
-221.716
-226.621
-231.526
-236.431
-241.336
-246.241
-251.146
-256.051
-260.956
-265.861
-270.766
-275.671
-280.576
-285.481
-290.386
-295.291
-300.196
-305.101
-310.006
-314.911
-319.816
-324.721
-329.626
-334.531
-339.436
-344.341
-349.246
-354.151
-359.056
-363.961
-368.866
-373.771
-378.676
-383.581
-388.486
-393.391
-398.296
-403.201
-408.106
-413.011
-417.916
-422.821
-427.726
-432.631
-437.536
-442.441
-447.346
-452.251
-457.156
-462.061
-466.966
-471.871
-476.775
-481.682
-486.588
-491.526
-496.258
-500.925
-505.583
-510.243
-514.902
-519.562
-524.222
-528.882
-533.541
-538.201
-542.861
-547.521
-552.18
-556.84
)
;

boundaryField
{
    inlet
    {
        type            cyclic;
    }
    outlet
    {
        type            cyclic;
    }
    top
    {
        type            calculated;
        value           uniform -559.17;
    }
    bottom
    {
        type            calculated;
        value           uniform 23.5332;
    }
    frontAndBackPlanes
    {
        type            empty;
    }
}


// ************************************************************************* //
