/*--------------------------------*- C++ -*----------------------------------*\
| =========                 |                                                 |
| \\      /  F ield         | OpenFOAM: The Open Source CFD Toolbox           |
|  \\    /   O peration     | Version:  v2006                                 |
|   \\  /    A nd           | Website:  www.openfoam.com                      |
|    \\/     M anipulation  |                                                 |
\*---------------------------------------------------------------------------*/
FoamFile
{
    version     2.0;
    format      ascii;
    class       volScalarField;
    location    "160";
    object      p_rbgh;
}
// * * * * * * * * * * * * * * * * * * * * * * * * * * * * * * * * * * * * * //

dimensions      [1 -1 -2 0 0 0 0];


internalField   nonuniform List<scalar> 
120
(
23.5332
23.5302
23.524
23.5143
23.5009
23.4833
23.461
23.4338
23.4002
23.3532
23.2705
23.1764
22.929
22.6785
22.4315
22.1857
21.9402
21.6949
21.4497
21.2044
20.9591
20.7139
20.4686
20.2234
19.9781
19.7329
19.4876
19.2424
18.9971
18.7519
18.5066
18.2614
18.0161
17.7709
17.5256
17.2804
17.0351
16.7899
16.5446
16.2994
16.0541
15.8089
15.5636
15.3184
15.0731
14.8279
14.5826
14.3374
14.0921
13.8469
13.6016
13.3564
13.1111
12.8659
12.6206
12.3754
12.1301
11.8849
11.6396
11.3944
11.1491
10.9039
10.6586
10.4134
10.1681
9.9229
9.67765
9.4324
9.18715
8.9419
8.69665
8.4514
8.20615
7.9609
7.71565
7.4704
7.22515
6.9799
6.73465
6.4894
6.24415
5.9989
5.75365
5.5084
5.26315
5.0179
4.77265
4.5274
4.28215
4.0369
3.79165
3.5464
3.30115
3.0559
2.81065
2.5654
2.32015
2.0749
1.82965
1.5844
1.33912
1.09387
0.849198
0.601963
0.355672
0.0772192
0.00550681
-0.00160948
-0.000524574
-1.77986e-05
4.0066e-05
3.00402e-06
-3.00006e-06
-3.5034e-07
2.24341e-07
4.22548e-08
-1.10456e-08
1.5937e-09
6.43509e-09
3.94983e-09
)
;

boundaryField
{
    inlet
    {
        type            cyclic;
    }
    outlet
    {
        type            cyclic;
    }
    top
    {
        type            fixedValue;
        value           uniform 0;
    }
    bottom
    {
        type            fixedFluxPressure;
        gradient        uniform 0;
        value           uniform 23.5332;
    }
    frontAndBackPlanes
    {
        type            empty;
    }
}


// ************************************************************************* //
