/*--------------------------------*- C++ -*----------------------------------*\
| =========                 |                                                 |
| \\      /  F ield         | OpenFOAM: The Open Source CFD Toolbox           |
|  \\    /   O peration     | Version:  v2006                                 |
|   \\  /    A nd           | Website:  www.openfoam.com                      |
|    \\/     M anipulation  |                                                 |
\*---------------------------------------------------------------------------*/
FoamFile
{
    version     2.0;
    format      ascii;
    class       surfaceScalarField;
    location    "160";
    object      phia;
}
// * * * * * * * * * * * * * * * * * * * * * * * * * * * * * * * * * * * * * //

dimensions      [0 3 -1 0 0 0 0];
oriented        oriented;


internalField   nonuniform List<scalar> 
119
(
-8.58366e-15
-1.79331e-14
-2.80856e-14
-3.92266e-14
-5.18464e-14
-6.66979e-14
-8.24379e-14
-1.0379e-13
-1.47357e-13
-2.65598e-13
-4.0153e-13
-1.60078e-12
-2.06685e-12
-2.22885e-12
-2.29007e-12
-2.3123e-12
-2.3198e-12
-2.32224e-12
-2.32299e-12
-2.3232e-12
-2.32326e-12
-2.32328e-12
-2.32328e-12
-2.32329e-12
-2.32329e-12
-2.32329e-12
-2.32329e-12
-2.32329e-12
-2.32329e-12
-2.32329e-12
-2.3233e-12
-2.3233e-12
-2.3233e-12
-2.3233e-12
-2.3233e-12
-2.3233e-12
-2.3233e-12
-2.32331e-12
-2.32331e-12
-2.32331e-12
-2.32331e-12
-2.32331e-12
-2.32331e-12
-2.32331e-12
-2.32331e-12
-2.32331e-12
-2.32331e-12
-2.32331e-12
-2.32331e-12
-2.32331e-12
-2.32331e-12
-2.32331e-12
-2.32331e-12
-2.32331e-12
-2.32331e-12
-2.32331e-12
-2.32331e-12
-2.32331e-12
-2.32331e-12
-2.32331e-12
-2.32331e-12
-2.32331e-12
-2.32331e-12
-2.32331e-12
-2.32331e-12
-2.32331e-12
-2.32331e-12
-2.32331e-12
-2.32331e-12
-2.32331e-12
-2.32331e-12
-2.32331e-12
-2.32331e-12
-2.32331e-12
-2.32331e-12
-2.32331e-12
-2.32331e-12
-2.32331e-12
-2.32331e-12
-2.32331e-12
-2.32331e-12
-2.32331e-12
-2.32331e-12
-2.32331e-12
-2.32331e-12
-2.32331e-12
-2.32331e-12
-2.32331e-12
-2.32331e-12
-2.32331e-12
-2.32332e-12
-2.32332e-12
-2.32332e-12
-2.32331e-12
-2.32332e-12
-2.3233e-12
-2.32336e-12
-2.32319e-12
-2.3237e-12
-2.32267e-12
-2.32152e-12
-2.33502e-12
-2.28669e-12
-2.57359e-12
-2.12796e-12
-2.68637e-11
-9.05476e-12
-1.53703e-10
-8.21831e-11
-8.22958e-11
-8.22751e-11
-8.22756e-11
-8.2277e-11
-8.22767e-11
-8.22766e-11
-8.22766e-11
-8.22766e-11
-8.22565e-11
-8.21697e-11
)
;

boundaryField
{
    inlet
    {
        type            cyclic;
        value           nonuniform List<scalar> 
120
(
1.72379e-28
5.17832e-28
8.63705e-28
1.23898e-27
1.60675e-27
1.96122e-27
2.3057e-27
2.74458e-27
3.58272e-27
6.89696e-27
2.80953e-26
3.33658e-25
7.96186e-25
4.7414e-25
2.48095e-25
1.25878e-25
7.93199e-26
9.68509e-26
1.94948e-25
4.2476e-25
8.73795e-25
1.65427e-24
2.86937e-24
4.58114e-24
1.97515e-24
-4.29766e-25
-3.0075e-24
-3.79354e-24
-5.54424e-24
-8.55578e-24
-8.21842e-24
-4.41411e-24
-1.52799e-24
9.29694e-25
3.44157e-24
6.39421e-24
5.21857e-24
-2.08035e-25
-7.04377e-25
-6.18308e-24
-2.7162e-24
-4.77718e-24
-2.94896e-24
-2.02173e-24
-1.94968e-24
-7.47224e-24
-4.24703e-24
-1.54043e-24
5.82263e-24
3.98613e-24
2.71895e-24
2.12423e-24
2.24185e-24
3.03203e-24
4.39084e-24
1.3373e-24
-1.76124e-24
-5.37249e-24
-9.95205e-24
-6.29212e-24
-3.94194e-24
-2.76652e-24
-2.58152e-24
-3.16908e-24
-4.35006e-24
3.59376e-24
1.83135e-24
-1.44299e-25
-2.57336e-24
-5.76592e-24
-1.00648e-23
-6.1581e-24
-3.48967e-24
-1.81926e-24
-8.72729e-25
-3.88254e-25
-1.69392e-25
-9.9544e-26
-1.37946e-25
-3.19768e-25
-7.734e-25
-1.75304e-24
-3.66578e-24
-7.05591e-24
-1.25118e-23
-2.05876e-23
-1.25117e-23
-7.05582e-24
-3.66559e-24
-1.75245e-24
-7.71392e-25
-3.13153e-25
-1.17526e-25
-4.08928e-26
-1.32318e-26
-3.99398e-27
-1.12807e-27
-2.99024e-28
-7.45958e-29
-1.75665e-29
-3.91065e-30
-8.26243e-31
-1.66164e-31
-3.16399e-32
-6.57149e-33
-9.6103e-34
-8.42941e-34
-6.42413e-34
-4.85895e-34
-3.67602e-34
-2.78167e-34
-2.10295e-34
-1.58609e-34
-1.19067e-34
-8.85873e-35
-6.48245e-35
-4.59568e-35
-3.05475e-35
-1.74343e-35
-5.62975e-36
)
;
    }
    outlet
    {
        type            cyclic;
        value           nonuniform List<scalar> 
120
(
-1.72379e-28
-5.17832e-28
-8.63705e-28
-1.23898e-27
-1.60675e-27
-1.96122e-27
-2.3057e-27
-2.74458e-27
-3.58272e-27
-6.89696e-27
-2.80953e-26
-3.33658e-25
-7.96186e-25
-4.7414e-25
-2.48095e-25
-1.25878e-25
-7.93199e-26
-9.68509e-26
-1.94948e-25
-4.2476e-25
-8.73795e-25
-1.65427e-24
-2.86937e-24
-4.58114e-24
-1.97515e-24
4.29766e-25
3.0075e-24
3.79354e-24
5.54424e-24
8.55578e-24
8.21842e-24
4.41411e-24
1.52799e-24
-9.29694e-25
-3.44157e-24
-6.39421e-24
-5.21857e-24
2.08035e-25
7.04377e-25
6.18308e-24
2.7162e-24
4.77718e-24
2.94896e-24
2.02173e-24
1.94968e-24
7.47224e-24
4.24703e-24
1.54043e-24
-5.82263e-24
-3.98613e-24
-2.71895e-24
-2.12423e-24
-2.24185e-24
-3.03203e-24
-4.39084e-24
-1.3373e-24
1.76124e-24
5.37249e-24
9.95205e-24
6.29212e-24
3.94194e-24
2.76652e-24
2.58152e-24
3.16908e-24
4.35006e-24
-3.59376e-24
-1.83135e-24
1.44299e-25
2.57336e-24
5.76592e-24
1.00648e-23
6.1581e-24
3.48967e-24
1.81926e-24
8.72729e-25
3.88254e-25
1.69392e-25
9.9544e-26
1.37946e-25
3.19768e-25
7.734e-25
1.75304e-24
3.66578e-24
7.05591e-24
1.25118e-23
2.05876e-23
1.25117e-23
7.05582e-24
3.66559e-24
1.75245e-24
7.71392e-25
3.13153e-25
1.17526e-25
4.08928e-26
1.32318e-26
3.99398e-27
1.12807e-27
2.99024e-28
7.45958e-29
1.75665e-29
3.91065e-30
8.26243e-31
1.66164e-31
3.16399e-32
6.57149e-33
9.6103e-34
8.42941e-34
6.42413e-34
4.85895e-34
3.67602e-34
2.78167e-34
2.10295e-34
1.58609e-34
1.19067e-34
8.85873e-35
6.48245e-35
4.59568e-35
3.05475e-35
1.74343e-35
5.62975e-36
)
;
    }
    top
    {
        type            fixedValue;
        value           uniform 0;
    }
    bottom
    {
        type            fixedValue;
        value           uniform 0;
    }
    frontAndBackPlanes
    {
        type            empty;
        value           nonuniform List<scalar> 0();
    }
}


// ************************************************************************* //
