/*--------------------------------*- C++ -*----------------------------------*\
| =========                 |                                                 |
| \\      /  F ield         | OpenFOAM: The Open Source CFD Toolbox           |
|  \\    /   O peration     | Version:  v2006                                 |
|   \\  /    A nd           | Website:  www.openfoam.com                      |
|    \\/     M anipulation  |                                                 |
\*---------------------------------------------------------------------------*/
FoamFile
{
    version     2.0;
    format      ascii;
    class       surfaceScalarField;
    location    "160";
    object      phib;
}
// * * * * * * * * * * * * * * * * * * * * * * * * * * * * * * * * * * * * * //

dimensions      [0 3 -1 0 0 0 0];
oriented        oriented;


internalField   nonuniform List<scalar> 
119
(
1.23974e-14
2.58523e-14
4.04011e-14
5.62892e-14
7.41815e-14
9.5099e-14
1.17049e-13
1.46646e-13
2.0708e-13
3.70688e-13
5.17884e-13
1.81134e-12
2.16335e-12
2.26582e-12
2.3034e-12
2.31678e-12
2.32126e-12
2.32272e-12
2.32316e-12
2.32329e-12
2.32332e-12
2.32333e-12
2.32333e-12
2.32333e-12
2.32333e-12
2.32333e-12
2.32333e-12
2.32333e-12
2.32332e-12
2.32332e-12
2.32332e-12
2.32332e-12
2.32332e-12
2.32332e-12
2.32332e-12
2.32332e-12
2.32332e-12
2.32332e-12
2.32331e-12
2.32331e-12
2.32331e-12
2.32331e-12
2.32331e-12
2.32331e-12
2.32331e-12
2.32331e-12
2.32331e-12
2.32331e-12
2.32331e-12
2.32331e-12
2.32331e-12
2.32331e-12
2.32331e-12
2.32331e-12
2.32331e-12
2.32331e-12
2.32331e-12
2.32331e-12
2.32331e-12
2.32331e-12
2.32331e-12
2.32331e-12
2.32331e-12
2.32331e-12
2.32331e-12
2.32331e-12
2.32331e-12
2.32331e-12
2.32331e-12
2.32331e-12
2.32331e-12
2.32331e-12
2.32331e-12
2.32331e-12
2.32331e-12
2.32331e-12
2.32331e-12
2.32331e-12
2.32331e-12
2.32331e-12
2.32331e-12
2.32331e-12
2.32331e-12
2.32332e-12
2.32332e-12
2.32332e-12
2.32332e-12
2.32332e-12
2.32332e-12
2.32332e-12
2.32332e-12
2.32332e-12
2.32332e-12
2.32332e-12
2.32332e-12
2.32331e-12
2.32335e-12
2.32324e-12
2.32355e-12
2.32284e-12
2.32236e-12
2.33198e-12
2.29537e-12
2.44756e-12
2.08226e-12
9.83397e-12
8.71871e-14
1.33133e-15
6.34425e-18
7.87137e-18
8.99899e-18
1.06011e-17
1.17973e-17
1.34129e-17
1.41201e-17
1.50536e-17
1.50172e-17
1.52847e-17
1.44928e-17
)
;

boundaryField
{
    inlet
    {
        type            cyclic;
        value           nonuniform List<scalar> 
120
(
1.72378e-28
5.17674e-28
8.3017e-28
1.23882e-27
1.60675e-27
1.96019e-27
2.08978e-27
2.74631e-27
3.94606e-27
6.9917e-27
2.98864e-26
3.43735e-25
7.96161e-25
4.74143e-25
2.48099e-25
1.25881e-25
7.93224e-26
9.68541e-26
1.94953e-25
4.24769e-25
8.73808e-25
1.65428e-24
2.86938e-24
4.55929e-24
1.97515e-24
-4.2977e-25
-2.99659e-24
-3.79358e-24
-5.54429e-24
-8.53396e-24
-8.1966e-24
-4.41415e-24
-1.52801e-24
9.29695e-25
3.44158e-24
6.37236e-24
5.19672e-24
-1.86162e-25
-7.26246e-25
-6.13937e-24
-2.73809e-24
-4.75535e-24
-2.949e-24
-2.02176e-24
-1.97157e-24
-7.42853e-24
-4.24704e-24
-1.51857e-24
5.77891e-24
3.98614e-24
2.71898e-24
2.12426e-24
2.24187e-24
3.03205e-24
4.36899e-24
1.3373e-24
-1.76125e-24
-5.37252e-24
-9.90836e-24
-6.29217e-24
-3.94199e-24
-2.76656e-24
-2.58155e-24
-3.1691e-24
-4.30634e-24
3.55001e-24
1.83133e-24
-1.44317e-25
-2.57339e-24
-5.76596e-24
-1.00211e-23
-6.15814e-24
-3.48971e-24
-1.81929e-24
-8.72748e-25
-3.88265e-25
-1.69398e-25
-9.95482e-26
-1.37952e-25
-3.19778e-25
-7.7342e-25
-1.75307e-24
-3.66584e-24
-7.05599e-24
-1.25119e-23
-2.05002e-23
-1.25118e-23
-7.0559e-24
-3.66565e-24
-1.75248e-24
-7.71412e-25
-3.13163e-25
-1.17531e-25
-4.08947e-26
-1.32325e-26
-3.99423e-27
-1.12815e-27
-2.99048e-28
-7.46024e-29
-1.75682e-29
-3.91107e-30
-8.26338e-31
-1.66185e-31
-3.16443e-32
-6.57228e-33
-9.61231e-34
-8.42959e-34
-6.42035e-34
-4.85743e-34
-3.6762e-34
-2.78183e-34
-2.10305e-34
-1.58618e-34
-1.19073e-34
-8.85932e-35
-6.48283e-35
-4.59589e-35
-3.05498e-35
-1.74361e-35
-5.63053e-36
)
;
    }
    outlet
    {
        type            cyclic;
        value           nonuniform List<scalar> 
120
(
-1.72378e-28
-5.17674e-28
-8.3017e-28
-1.23882e-27
-1.60675e-27
-1.96019e-27
-2.08978e-27
-2.74631e-27
-3.94606e-27
-6.9917e-27
-2.98864e-26
-3.43735e-25
-7.96161e-25
-4.74143e-25
-2.48099e-25
-1.25881e-25
-7.93224e-26
-9.68541e-26
-1.94953e-25
-4.24769e-25
-8.73808e-25
-1.65428e-24
-2.86938e-24
-4.55929e-24
-1.97515e-24
4.2977e-25
2.99659e-24
3.79358e-24
5.54429e-24
8.53396e-24
8.1966e-24
4.41415e-24
1.52801e-24
-9.29695e-25
-3.44158e-24
-6.37236e-24
-5.19672e-24
1.86162e-25
7.26246e-25
6.13937e-24
2.73809e-24
4.75535e-24
2.949e-24
2.02176e-24
1.97157e-24
7.42853e-24
4.24704e-24
1.51857e-24
-5.77891e-24
-3.98614e-24
-2.71898e-24
-2.12426e-24
-2.24187e-24
-3.03205e-24
-4.36899e-24
-1.3373e-24
1.76125e-24
5.37252e-24
9.90836e-24
6.29217e-24
3.94199e-24
2.76656e-24
2.58155e-24
3.1691e-24
4.30634e-24
-3.55001e-24
-1.83133e-24
1.44317e-25
2.57339e-24
5.76596e-24
1.00211e-23
6.15814e-24
3.48971e-24
1.81929e-24
8.72748e-25
3.88265e-25
1.69398e-25
9.95482e-26
1.37952e-25
3.19778e-25
7.7342e-25
1.75307e-24
3.66584e-24
7.05599e-24
1.25119e-23
2.05002e-23
1.25118e-23
7.0559e-24
3.66565e-24
1.75248e-24
7.71412e-25
3.13163e-25
1.17531e-25
4.08947e-26
1.32325e-26
3.99423e-27
1.12815e-27
2.99048e-28
7.46024e-29
1.75682e-29
3.91107e-30
8.26338e-31
1.66185e-31
3.16443e-32
6.57228e-33
9.61231e-34
8.42959e-34
6.42035e-34
4.85743e-34
3.6762e-34
2.78183e-34
2.10305e-34
1.58618e-34
1.19073e-34
8.85932e-35
6.48283e-35
4.59589e-35
3.05498e-35
1.74361e-35
5.63053e-36
)
;
    }
    top
    {
        type            fixedValue;
        value           uniform 0;
    }
    bottom
    {
        type            fixedValue;
        value           uniform 0;
    }
    frontAndBackPlanes
    {
        type            empty;
        value           nonuniform List<scalar> 0();
    }
}


// ************************************************************************* //
