/*--------------------------------*- C++ -*----------------------------------*\
| =========                 |                                                 |
| \\      /  F ield         | OpenFOAM: The Open Source CFD Toolbox           |
|  \\    /   O peration     | Version:  v2006                                 |
|   \\  /    A nd           | Website:  www.openfoam.com                      |
|    \\/     M anipulation  |                                                 |
\*---------------------------------------------------------------------------*/
FoamFile
{
    version     2.0;
    format      ascii;
    class       volTensorField;
    location    "160";
    object      Taua;
}
// * * * * * * * * * * * * * * * * * * * * * * * * * * * * * * * * * * * * * //

dimensions      [1 -1 -2 0 0 0 0];


internalField   nonuniform List<tensor> 
120
(
(0.0167946 0 0 -2.41574e-15 -0.0335891 0 0 0 0.0167946)
(0.0180313 0 0 -2.41964e-15 -0.0360625 0 0 0 0.0180313)
(0.0196933 0 0 -2.52403e-15 -0.0393867 0 0 0 0.0196933)
(0.0217328 0 0 -2.60067e-15 -0.0434656 0 0 0 0.0217328)
(0.0248446 0 0 -2.52783e-15 -0.0496892 0 0 0 0.0248446)
(0.0284888 0 0 -2.44632e-15 -0.0569776 0 0 0 0.0284888)
(0.031906 0 0 -2.74177e-15 -0.0638119 0 0 0 0.031906)
(0.040915 0 0 -4.46959e-15 -0.0818299 0 0 0 0.040915)
(0.0307717 0 0 -5.75645e-15 -0.0615433 0 0 0 0.0307717)
(0.018593 0 0 -7.30705e-15 -0.0371861 0 0 0 0.018593)
(0.00878922 0 0 -5.9478e-15 -0.0175784 0 0 0 0.00878922)
(4.09294e-07 0 0 -1.46499e-18 -8.18588e-07 0 0 0 4.09294e-07)
(-1.87551e-07 0 0 -2.5408e-19 3.75103e-07 0 0 0 -1.87551e-07)
(4.93332e-07 0 0 9.70768e-19 -9.86665e-07 0 0 0 4.93332e-07)
(3.4907e-07 0 0 6.12098e-19 -6.9814e-07 0 0 0 3.4907e-07)
(8.81502e-08 0 0 2.95786e-19 -1.763e-07 0 0 0 8.81502e-08)
(3.09465e-08 0 0 5.08203e-20 -6.1893e-08 0 0 0 3.09465e-08)
(1.14399e-08 0 0 -2.02378e-19 -2.28797e-08 0 0 0 1.14399e-08)
(3.59161e-09 0 0 -5.73865e-19 -7.18322e-09 0 0 0 3.59161e-09)
(1.073e-09 0 0 -1.188e-18 -2.146e-09 0 0 0 1.073e-09)
(3.08561e-10 0 0 -2.15164e-18 -6.17122e-10 0 0 0 3.08561e-10)
(8.32914e-11 0 0 -3.49225e-18 -1.66583e-10 0 0 0 8.32914e-11)
(2.26131e-11 0 0 -5.12203e-18 -4.52262e-11 0 0 0 2.26131e-11)
(6.29027e-12 0 0 1.56488e-18 -1.25805e-11 0 0 0 6.29027e-12)
(2.3425e-12 0 0 8.76908e-18 -4.685e-12 0 0 0 2.3425e-12)
(8.62664e-13 0 0 8.71964e-18 -1.72533e-12 0 0 0 8.62664e-13)
(1.13252e-12 0 0 5.88661e-18 -2.26504e-12 0 0 0 1.13252e-12)
(8.49249e-13 0 0 4.43929e-18 -1.6985e-12 0 0 0 8.49249e-13)
(1.36669e-12 0 0 8.33392e-18 -2.73338e-12 0 0 0 1.36669e-12)
(1.47556e-12 0 0 4.67981e-18 -2.95111e-12 0 0 0 1.47556e-12)
(1.94523e-12 0 0 -7.24792e-18 -3.89046e-12 0 0 0 1.94523e-12)
(1.59718e-12 0 0 -1.17083e-17 -3.19436e-12 0 0 0 1.59718e-12)
(1.49151e-12 0 0 -9.35166e-18 -2.98303e-12 0 0 0 1.49151e-12)
(1.13301e-12 0 0 -8.69674e-18 -2.26602e-12 0 0 0 1.13301e-12)
(1.17722e-12 0 0 -9.5629e-18 -2.35445e-12 0 0 0 1.17722e-12)
(9.4843e-13 1.17803e-21 0 -3.10976e-18 -1.89686e-12 0 0 0 9.4843e-13)
(1.00544e-12 0 0 1.15539e-17 -2.01088e-12 0 0 0 1.00544e-12)
(9.26665e-13 0 0 1.03652e-17 -1.85333e-12 0 0 0 9.26665e-13)
(9.69387e-13 0 0 1.04563e-17 -1.93877e-12 0 0 0 9.69387e-13)
(8.06636e-13 0 0 3.52069e-18 -1.61327e-12 0 0 0 8.06636e-13)
(7.14076e-13 0 0 -2.46033e-18 -1.42815e-12 0 0 0 7.14076e-13)
(5.68848e-13 0 0 4.07342e-19 -1.1377e-12 0 0 0 5.68848e-13)
(5.20527e-13 0 0 -4.82204e-18 -1.04105e-12 0 0 0 5.20527e-13)
(4.22416e-13 0 0 -1.74875e-18 -8.44832e-13 0 0 0 4.22416e-13)
(3.91889e-13 0 0 9.5384e-18 -7.83777e-13 0 0 0 3.91889e-13)
(3.41835e-13 0 0 4.02036e-18 -6.83669e-13 0 0 0 3.41835e-13)
(3.18311e-13 0 0 -1.03807e-17 -6.36623e-13 0 0 0 3.18311e-13)
(2.63838e-13 0 0 -1.76219e-17 -5.27676e-13 0 0 0 2.63838e-13)
(2.22769e-13 0 0 -9.67147e-18 -4.45537e-13 0 0 0 2.22769e-13)
(1.79312e-13 0 0 5.43145e-18 -3.58623e-13 0 0 0 1.79312e-13)
(1.53789e-13 0 0 3.25832e-18 -3.07579e-13 0 0 0 1.53789e-13)
(1.25454e-13 0 0 8.34931e-19 -2.50908e-13 0 0 0 1.25454e-13)
(1.09116e-13 0 0 -1.58866e-18 -2.18232e-13 0 0 0 1.09116e-13)
(9.42896e-14 0 0 -3.76074e-18 -1.88579e-13 0 0 0 9.42896e-14)
(8.30761e-14 0 0 2.96578e-18 -1.66152e-13 0 0 0 8.30761e-14)
(6.93645e-14 0 0 1.07661e-17 -1.38729e-13 0 0 0 6.93645e-14)
(5.60835e-14 0 0 1.17421e-17 -1.12167e-13 0 0 0 5.60835e-14)
(4.80778e-14 0 0 1.43339e-17 -9.61556e-14 0 0 0 4.80778e-14)
(4.08695e-14 -1.17803e-21 0 1.60936e-18 -8.17389e-14 0 0 0 4.08695e-14)
(3.88474e-14 0 0 -1.05177e-17 -7.76949e-14 0 0 0 3.88474e-14)
(3.31038e-14 0 0 -6.1698e-18 -6.62075e-14 0 0 0 3.31038e-14)
(3.79561e-14 0 0 -2.38074e-18 -7.59121e-14 0 0 0 3.79561e-14)
(3.38365e-14 0 0 7.04483e-19 -6.7673e-14 0 0 0 3.38365e-14)
(3.45552e-14 0 0 3.09494e-18 -6.91104e-14 0 0 0 3.45552e-14)
(1.97012e-14 0 0 -1.1835e-17 -3.94024e-14 0 0 0 1.97012e-14)
(3.33892e-14 0 0 -1.08175e-17 -6.67785e-14 0 0 0 3.33892e-14)
(2.66926e-14 0 0 6.5416e-18 -5.33852e-14 0 0 0 2.66926e-14)
(5.22847e-14 0 0 7.70823e-18 -1.04569e-13 0 0 0 5.22847e-14)
(3.3679e-14 0 0 9.83784e-18 -6.73581e-14 0 0 0 3.3679e-14)
(8.22337e-14 0 0 1.31101e-17 -1.64467e-13 0 0 0 8.22337e-14)
(6.34129e-14 0 0 6.86311e-19 -1.26826e-13 0 0 0 6.34129e-14)
(8.66727e-14 0 0 -1.15065e-17 -1.73345e-13 0 0 0 8.66727e-14)
(3.7173e-15 0 0 -7.59296e-18 -7.43461e-15 0 0 0 3.7173e-15)
(8.55636e-14 0 0 -4.57965e-18 -1.71127e-13 0 0 0 8.55636e-14)
(4.0638e-14 0 0 -2.50427e-18 -8.1276e-14 0 0 0 4.0638e-14)
(1.61387e-13 0 0 -1.23084e-18 -3.22775e-13 0 0 0 1.61387e-13)
(4.16611e-14 0 0 -5.05243e-19 -8.33222e-14 0 0 0 4.16611e-14)
(2.65602e-13 0 0 -5.50307e-20 -5.31204e-13 0 0 0 2.65602e-13)
(1.65073e-13 0 0 3.85392e-19 -3.30146e-13 0 0 0 1.65073e-13)
(2.60784e-13 0 0 1.11204e-18 -5.21568e-13 0 0 0 2.60784e-13)
(-1.22062e-13 0 0 2.50822e-18 2.44124e-13 0 0 0 -1.22062e-13)
(1.74374e-13 0 0 5.06167e-18 -3.48747e-13 0 0 0 1.74374e-13)
(-1.35674e-15 0 0 9.28002e-18 2.71347e-15 0 0 0 -1.35674e-15)
(3.51974e-13 0 0 1.54805e-17 -7.03949e-13 0 0 0 3.51974e-13)
(-1.03948e-13 0 0 2.36804e-17 2.07896e-13 0 0 0 -1.03948e-13)
(5.76894e-13 0 0 -1.0283e-22 -1.15379e-12 0 0 0 5.76894e-13)
(3.41032e-13 0 0 -2.36805e-17 -6.82064e-13 0 0 0 3.41032e-13)
(5.15055e-13 0 0 -1.54807e-17 -1.03011e-12 0 0 0 5.15055e-13)
(-5.50571e-13 0 0 -9.28089e-18 1.10114e-12 0 0 0 -5.50571e-13)
(1.03367e-13 0 0 -5.06485e-18 -2.06734e-13 0 0 0 1.03367e-13)
(-4.35249e-13 0 0 -2.51876e-18 8.70498e-13 0 0 0 -4.35249e-13)
(-2.16106e-13 0 0 -1.14426e-18 4.32213e-13 0 0 0 -2.16106e-13)
(-1.02037e-12 0 0 -4.76454e-19 2.04074e-12 0 0 0 -1.02037e-12)
(2.27653e-11 0 0 -1.82515e-19 -4.55307e-11 0 0 0 2.27653e-11)
(-8.95424e-11 0 0 -6.45729e-20 1.79085e-10 0 0 0 -8.95424e-11)
(5.49433e-11 0 0 -2.11815e-20 -1.09887e-10 0 0 0 5.49433e-11)
(1.30597e-10 0 0 -6.46618e-21 -2.61194e-10 0 0 0 1.30597e-10)
(3.73885e-09 0 0 -1.84355e-21 -7.47771e-09 0 0 0 3.73885e-09)
(-2.13988e-08 0 0 -4.92565e-22 4.27976e-08 0 0 0 -2.13988e-08)
(4.96361e-09 0 0 -1.23687e-22 -9.92722e-09 0 0 0 4.96361e-09)
(2.01935e-07 0 0 -2.93003e-23 -4.03869e-07 0 0 0 2.01935e-07)
(4.20405e-08 0 0 -6.55412e-24 -8.40809e-08 0 0 0 4.20405e-08)
(-2.8329e-06 0 0 -1.38847e-24 5.66581e-06 0 0 0 -2.8329e-06)
(-2.50794e-06 0 0 -2.80763e-25 5.01589e-06 0 0 0 -2.50794e-06)
(5.7462e-05 0 0 -5.07089e-26 -0.000114924 0 0 0 5.7462e-05)
(1.90094e-05 0 0 -1.03636e-26 -3.80187e-05 0 0 0 1.90094e-05)
(-1.09206e-06 0 0 -2.12505e-29 2.18413e-06 0 0 0 -1.09206e-06)
(1.38014e-09 0 0 -2.15648e-32 -2.76028e-09 0 0 0 1.38014e-09)
(7.08099e-15 0 0 -3.39711e-37 -1.4162e-14 0 0 0 7.08099e-15)
(-4.9159e-17 0 0 -1.0501e-39 9.83179e-17 0 0 0 -4.9159e-17)
(-6.46236e-24 0 0 -2.41085e-45 1.29247e-23 0 0 0 -6.46236e-24)
(-8.6922e-31 0 0 -3.2925e-51 1.73844e-30 0 0 0 -8.6922e-31)
(7.62575e-34 0 0 -2.15608e-54 -1.52515e-33 0 0 0 7.62575e-34)
(9.10322e-36 0 0 -1.67017e-55 -1.82064e-35 0 0 0 9.10322e-36)
(-4.99819e-37 0 0 -1.12424e-56 9.99638e-37 0 0 0 -4.99819e-37)
(-6.04685e-39 0 0 -6.4166e-58 1.20937e-38 0 0 0 -6.04685e-39)
(-2.29386e-39 0 0 -3.00827e-59 4.58772e-39 0 0 0 -2.29386e-39)
(-2.50403e-40 0 0 -1.1006e-60 5.00806e-40 0 0 0 -2.50403e-40)
(-5.4078e-41 0 0 -2.84915e-62 1.08156e-40 0 0 0 -5.4078e-41)
(-7.89965e-40 0 0 -3.99096e-64 1.57993e-39 0 0 0 -7.89965e-40)
)
;

boundaryField
{
    inlet
    {
        type            cyclic;
    }
    outlet
    {
        type            cyclic;
    }
    top
    {
        type            extrapolatedCalculated;
        value           uniform (-1.57842e-39 0 0 -3.89665e-64 3.15685e-39 0 0 0 -1.57842e-39);
    }
    bottom
    {
        type            extrapolatedCalculated;
        value           uniform (0.01639 0 0 -2.41331e-15 -0.03278 0 0 0 0.01639);
    }
    frontAndBackPlanes
    {
        type            empty;
    }
}


// ************************************************************************* //
