/*--------------------------------*- C++ -*----------------------------------*\
| =========                 |                                                 |
| \\      /  F ield         | OpenFOAM: The Open Source CFD Toolbox           |
|  \\    /   O peration     | Version:  v2006                                 |
|   \\  /    A nd           | Website:  www.openfoam.com                      |
|    \\/     M anipulation  |                                                 |
\*---------------------------------------------------------------------------*/
FoamFile
{
    version     2.0;
    format      ascii;
    class       volTensorField;
    location    "160";
    object      Taub;
}
// * * * * * * * * * * * * * * * * * * * * * * * * * * * * * * * * * * * * * //

dimensions      [1 -1 -2 0 0 0 0];


internalField   nonuniform List<tensor> 
120
(
(-1.17173e-06 0 0 -1.13959e-19 2.34347e-06 0 0 0 -1.17173e-06)
(-1.24103e-06 0 0 -1.08584e-19 2.48206e-06 0 0 0 -1.24103e-06)
(-1.34364e-06 0 0 -1.18985e-19 2.68728e-06 0 0 0 -1.34364e-06)
(-1.47598e-06 0 0 -1.2806e-19 2.95196e-06 0 0 0 -1.47598e-06)
(-1.66015e-06 0 0 -1.18879e-19 3.3203e-06 0 0 0 -1.66015e-06)
(-1.84967e-06 0 0 -7.9542e-20 3.69934e-06 0 0 0 -1.84967e-06)
(-2.19062e-06 0 0 -1.29332e-19 4.38125e-06 0 0 0 -2.19062e-06)
(-3.62003e-06 0 0 -3.05053e-19 7.24006e-06 0 0 0 -3.62003e-06)
(-8.61233e-06 0 0 -6.96777e-19 1.72247e-05 0 0 0 -8.61233e-06)
(-7.26955e-06 0 0 -4.25171e-18 1.45391e-05 0 0 0 -7.26955e-06)
(1.05843e-05 0 0 -5.50825e-17 -2.11685e-05 0 0 0 1.05843e-05)
(-0.000110724 0 0 -1.20666e-16 0.000221448 0 0 0 -0.000110724)
(-0.000118089 0 0 -1.99229e-17 0.000236178 0 0 0 -0.000118089)
(1.80768e-05 0 0 8.27517e-17 -3.61536e-05 0 0 0 1.80768e-05)
(2.1085e-05 0 0 5.23585e-17 -4.21699e-05 0 0 0 2.1085e-05)
(4.38155e-06 0 0 2.53338e-17 -8.7631e-06 0 0 0 4.38155e-06)
(1.58221e-06 0 0 4.35456e-18 -3.16442e-06 0 0 0 1.58221e-06)
(6.34932e-07 0 0 -1.73438e-17 -1.26986e-06 0 0 0 6.34932e-07)
(2.0052e-07 0 0 -4.91822e-17 -4.01039e-07 0 0 0 2.0052e-07)
(6.07084e-08 0 0 -1.01816e-16 -1.21417e-07 0 0 0 6.07084e-08)
(1.79012e-08 0 0 -1.84405e-16 -3.58023e-08 0 0 0 1.79012e-08)
(4.96696e-09 0 0 -2.99299e-16 -9.93392e-09 0 0 0 4.96696e-09)
(1.45807e-09 0 0 -4.35696e-16 -2.91613e-09 0 0 0 1.45807e-09)
(4.61187e-10 0 0 1.34118e-16 -9.22374e-10 0 0 0 4.61187e-10)
(2.06176e-10 0 0 7.48265e-16 -4.12353e-10 0 0 0 2.06176e-10)
(8.48334e-11 0 0 7.45668e-16 -1.69667e-10 0 0 0 8.48334e-11)
(1.04495e-10 0 0 5.04508e-16 -2.0899e-10 0 0 0 1.04495e-10)
(6.46424e-11 0 0 3.82107e-16 -1.29285e-10 0 0 0 6.46424e-11)
(1.03021e-10 0 0 7.10969e-16 -2.06041e-10 0 0 0 1.03021e-10)
(1.07065e-10 0 0 3.97797e-16 -2.1413e-10 0 0 0 1.07065e-10)
(1.47114e-10 0 0 -6.17895e-16 -2.94228e-10 0 0 0 1.47114e-10)
(1.09652e-10 0 0 -1.00016e-15 -2.19304e-10 0 0 0 1.09652e-10)
(9.77469e-11 0 0 -8.01476e-16 -1.95494e-10 0 0 0 9.77469e-11)
(6.46254e-11 0 0 -7.45346e-16 -1.29251e-10 0 0 0 6.46254e-11)
(7.05899e-11 0 0 -8.16297e-16 -1.4118e-10 0 0 0 7.05899e-11)
(4.98416e-11 -1.00962e-19 0 -2.63238e-16 -9.96833e-11 0 0 0 4.98416e-11)
(5.65324e-11 0 0 9.83655e-16 -1.13065e-10 0 0 0 5.65324e-11)
(5.08988e-11 0 0 8.88334e-16 -1.01798e-10 0 0 0 5.08988e-11)
(5.71699e-11 0 0 8.92869e-16 -1.1434e-10 0 0 0 5.71699e-11)
(4.38957e-11 0 0 3.01739e-16 -8.77914e-11 0 0 0 4.38957e-11)
(3.78398e-11 0 0 -2.07577e-16 -7.56797e-11 0 0 0 3.78398e-11)
(2.72865e-11 0 0 3.16322e-17 -5.4573e-11 0 0 0 2.72865e-11)
(2.59583e-11 0 0 -4.09986e-16 -5.19167e-11 0 0 0 2.59583e-11)
(1.9411e-11 0 0 -1.46595e-16 -3.88221e-11 0 0 0 1.9411e-11)
(1.8934e-11 0 0 8.10914e-16 -3.78681e-11 0 0 0 1.8934e-11)
(1.63245e-11 0 0 3.41277e-16 -3.26491e-11 0 0 0 1.63245e-11)
(1.60214e-11 0 0 -8.86384e-16 -3.20428e-11 0 0 0 1.60214e-11)
(1.25606e-11 0 0 -1.5037e-15 -2.51211e-11 0 0 0 1.25606e-11)
(1.02873e-11 0 0 -8.25603e-16 -2.05746e-11 0 0 0 1.02873e-11)
(7.71374e-12 0 0 4.58932e-16 -1.54275e-11 0 0 0 7.71374e-12)
(6.69195e-12 0 0 2.79248e-16 -1.33839e-11 0 0 0 6.69195e-12)
(5.16251e-12 0 0 7.15566e-17 -1.0325e-11 0 0 0 5.16251e-12)
(4.55589e-12 0 0 -1.36152e-16 -9.11177e-12 0 0 0 4.55589e-12)
(3.8945e-12 0 0 -3.19027e-16 -7.78899e-12 0 0 0 3.8945e-12)
(3.41681e-12 0 0 2.54181e-16 -6.83361e-12 0 0 0 3.41681e-12)
(2.5589e-12 0 0 9.19421e-16 -5.1178e-12 0 0 0 2.5589e-12)
(1.65229e-12 0 0 1.00635e-15 -3.30457e-12 0 0 0 1.65229e-12)
(1.16045e-12 0 0 1.22191e-15 -2.3209e-12 0 0 0 1.16045e-12)
(6.78876e-13 1.00962e-19 0 1.3793e-16 -1.35775e-12 0 0 0 6.78876e-13)
(5.61645e-13 0 0 -8.94843e-16 -1.12329e-12 0 0 0 5.61645e-13)
(-1.44053e-14 0 0 -5.28775e-16 2.88106e-14 0 0 0 -1.44053e-14)
(2.15709e-13 0 0 -2.0404e-16 -4.31417e-13 0 0 0 2.15709e-13)
(-5.35157e-13 0 0 6.03733e-17 1.07031e-12 0 0 0 -5.35157e-13)
(-1.02629e-12 0 0 2.58686e-16 2.05258e-12 0 0 0 -1.02629e-12)
(-3.03564e-12 0 0 -1.00774e-15 6.07128e-12 0 0 0 -3.03564e-12)
(-2.47825e-12 0 0 -9.20536e-16 4.95651e-12 0 0 0 -2.47825e-12)
(-3.75685e-12 0 0 5.5408e-16 7.51369e-12 0 0 0 -3.75685e-12)
(-2.21409e-12 0 0 6.60625e-16 4.42817e-12 0 0 0 -2.21409e-12)
(-4.91238e-12 0 0 8.43141e-16 9.82475e-12 0 0 0 -4.91238e-12)
(-1.90971e-12 0 0 1.11702e-15 3.81943e-12 0 0 0 -1.90971e-12)
(-5.48685e-12 0 0 5.88205e-17 1.09737e-11 0 0 0 -5.48685e-12)
(-5.77683e-12 0 0 -9.7959e-16 1.15537e-11 0 0 0 -5.77683e-12)
(-1.58924e-11 0 0 -6.50746e-16 3.17849e-11 0 0 0 -1.58924e-11)
(-1.08013e-11 0 0 -3.92496e-16 2.16026e-11 0 0 0 -1.08013e-11)
(-1.67084e-11 0 0 -2.14627e-16 3.34168e-11 0 0 0 -1.67084e-11)
(-7.53408e-12 0 0 -1.05489e-16 1.50682e-11 0 0 0 -7.53408e-12)
(-2.05829e-11 0 0 -4.33021e-17 4.11658e-11 0 0 0 -2.05829e-11)
(-3.36604e-12 0 0 -4.71638e-18 6.73208e-12 0 0 0 -3.36604e-12)
(-1.6806e-11 0 0 3.30304e-17 3.36119e-11 0 0 0 -1.6806e-11)
(-1.39041e-11 0 0 9.53084e-17 2.78082e-11 0 0 0 -1.39041e-11)
(-5.44997e-11 0 0 2.14967e-16 1.08999e-10 0 0 0 -5.44997e-11)
(-3.15753e-11 0 0 4.33809e-16 6.31505e-11 0 0 0 -3.15753e-11)
(-4.8594e-11 0 0 7.95338e-16 9.71881e-11 0 0 0 -4.8594e-11)
(-1.60795e-11 0 0 1.32674e-15 3.2159e-11 0 0 0 -1.60795e-11)
(-5.66963e-11 0 0 2.01638e-15 1.13393e-10 0 0 0 -5.66963e-11)
(5.05624e-12 0 0 -8.09038e-21 -1.01125e-11 0 0 0 5.05624e-12)
(-1.84839e-11 0 0 -2.01639e-15 3.69678e-11 0 0 0 -1.84839e-11)
(-8.16918e-12 0 0 -1.32676e-15 1.63384e-11 0 0 0 -8.16918e-12)
(-1.10277e-10 0 0 -7.95413e-16 2.20554e-10 0 0 0 -1.10277e-10)
(-5.08983e-11 0 0 -4.34082e-16 1.01797e-10 0 0 0 -5.08983e-11)
(-9.06718e-11 0 0 -2.15871e-16 1.81344e-10 0 0 0 -9.06718e-11)
(-5.28809e-11 0 0 -9.80699e-17 1.05762e-10 0 0 0 -5.28809e-11)
(-1.27706e-10 0 0 -4.08351e-17 2.55413e-10 0 0 0 -1.27706e-10)
(2.02274e-09 0 0 -1.56428e-17 -4.04548e-09 0 0 0 2.02274e-09)
(-7.93413e-09 0 0 -5.53438e-18 1.58683e-08 0 0 0 -7.93413e-09)
(5.87173e-09 0 0 -1.81543e-18 -1.17435e-08 0 0 0 5.87173e-09)
(6.82966e-09 0 0 -5.54208e-19 -1.36593e-08 0 0 0 6.82966e-09)
(3.35411e-07 0 0 -1.58011e-19 -6.70821e-07 0 0 0 3.35411e-07)
(-1.87905e-06 0 0 -4.22174e-20 3.75809e-06 0 0 0 -1.87905e-06)
(5.26877e-07 0 0 -1.06018e-20 -1.05375e-06 0 0 0 5.26877e-07)
(1.72531e-05 0 0 -2.5112e-21 -3.45062e-05 0 0 0 1.72531e-05)
(3.10761e-06 0 0 -5.61723e-22 -6.21522e-06 0 0 0 3.10761e-06)
(-0.000238489 0 0 -1.1909e-22 0.000476978 0 0 0 -0.000238489)
(-0.00023469 0 0 -2.40092e-23 0.00046938 0 0 0 -0.00023469)
(0.00502147 0 0 -4.46002e-24 -0.0100429 0 0 0 0.00502147)
(0.000228676 0 0 -8.75416e-25 -0.000457353 0 0 0 0.000228676)
(-0.00262267 0 0 -2.22907e-26 0.00524534 0 0 0 -0.00262267)
(3.50718e-05 0 0 -2.38125e-26 -7.01436e-05 0 0 0 3.50718e-05)
(0.000369254 0 0 -1.8292e-26 -0.000738509 0 0 0 0.000369254)
(1.22917e-05 0 0 -1.38356e-26 -2.45835e-05 0 0 0 1.22917e-05)
(-2.83081e-05 0 0 -1.04864e-26 5.66161e-05 0 0 0 -2.83081e-05)
(-2.09707e-06 0 0 -7.97e-27 4.19414e-06 0 0 0 -2.09707e-06)
(2.12364e-06 0 0 -6.08136e-27 -4.24728e-06 0 0 0 2.12364e-06)
(2.48979e-07 0 0 -4.66777e-27 -4.97958e-07 0 0 0 2.48979e-07)
(-1.55673e-07 0 0 -3.61585e-27 3.11347e-07 0 0 0 -1.55673e-07)
(-2.57949e-08 0 0 -2.84193e-27 5.15898e-08 0 0 0 -2.57949e-08)
(1.10921e-08 0 0 -2.28495e-27 -2.21842e-08 0 0 0 1.10921e-08)
(2.45987e-09 0 0 -1.90128e-27 -4.91974e-09 0 0 0 2.45987e-09)
(-7.88848e-10 0 0 -1.66108e-27 1.5777e-09 0 0 0 -7.88848e-10)
(4.66934e-10 0 0 -1.53758e-27 -9.33868e-10 0 0 0 4.66934e-10)
)
;

boundaryField
{
    inlet
    {
        type            cyclic;
    }
    outlet
    {
        type            cyclic;
    }
    top
    {
        type            extrapolatedCalculated;
        value           uniform (1.41872e-09 0 0 -1.50129e-27 -2.83743e-09 0 0 0 1.41872e-09);
    }
    bottom
    {
        type            extrapolatedCalculated;
        value           uniform (-1.14756e-06 0 0 -1.1387e-19 2.29511e-06 0 0 0 -1.14756e-06);
    }
    frontAndBackPlanes
    {
        type            empty;
    }
}


// ************************************************************************* //
