/*--------------------------------*- C++ -*----------------------------------*\
| =========                 |                                                 |
| \\      /  F ield         | OpenFOAM: The Open Source CFD Toolbox           |
|  \\    /   O peration     | Version:  v2006                                 |
|   \\  /    A nd           | Website:  www.openfoam.com                      |
|    \\/     M anipulation  |                                                 |
\*---------------------------------------------------------------------------*/
FoamFile
{
    version     2.0;
    format      ascii;
    class       volVectorField;
    location    "160";
    object      Ua;
}
// * * * * * * * * * * * * * * * * * * * * * * * * * * * * * * * * * * * * * //

dimensions      [0 1 -1 0 0 0 0];


internalField   nonuniform List<vector> 
120
(
(-5.74597e-22 -1.17072e-08 0)
(-1.72611e-21 -3.62773e-08 0)
(-2.87902e-21 -6.3225e-08 0)
(-4.12995e-21 -9.25439e-08 0)
(-5.35584e-21 -1.25319e-07 0)
(-6.5374e-21 -1.63528e-07 0)
(-7.68567e-21 -2.06715e-07 0)
(-9.14861e-21 -2.54688e-07 0)
(-1.19424e-20 -3.23615e-07 0)
(-2.29899e-20 -4.76658e-07 0)
(-9.36511e-20 -9.47347e-07 0)
(-1.11219e-18 -5.30529e-06 0)
(-2.65395e-18 -3.09326e-06 0)
(-1.58047e-18 -4.26831e-06 0)
(-8.26983e-19 -5.87859e-06 0)
(-4.19592e-19 -6.25439e-06 0)
(-2.644e-19 -6.38158e-06 0)
(-3.22836e-19 -6.43115e-06 0)
(-6.49827e-19 -6.44694e-06 0)
(-1.41587e-18 -6.45167e-06 0)
(-2.91265e-18 -6.45307e-06 0)
(-5.51423e-18 -6.45343e-06 0)
(-9.56455e-18 -6.45355e-06 0)
(-1.52705e-17 -6.45356e-06 0)
(-6.58382e-18 -6.45358e-06 0)
(1.43255e-18 -6.45358e-06 0)
(1.0025e-17 -6.45359e-06 0)
(1.26451e-17 -6.45358e-06 0)
(1.84808e-17 -6.45359e-06 0)
(2.85193e-17 -6.45359e-06 0)
(2.73947e-17 -6.4536e-06 0)
(1.47137e-17 -6.4536e-06 0)
(5.09331e-18 -6.45361e-06 0)
(-3.09898e-18 -6.45361e-06 0)
(-1.14719e-17 -6.45362e-06 0)
(-2.1314e-17 -6.45362e-06 0)
(-1.73952e-17 -6.45362e-06 0)
(6.93449e-19 -6.45362e-06 0)
(2.34792e-18 -6.45363e-06 0)
(2.06103e-17 -6.45363e-06 0)
(9.05399e-18 -6.45363e-06 0)
(1.59239e-17 -6.45363e-06 0)
(9.82988e-18 -6.45363e-06 0)
(6.73909e-18 -6.45364e-06 0)
(6.49893e-18 -6.45364e-06 0)
(2.49075e-17 -6.45364e-06 0)
(1.41568e-17 -6.45364e-06 0)
(5.13476e-18 -6.45364e-06 0)
(-1.94088e-17 -6.45364e-06 0)
(-1.32871e-17 -6.45364e-06 0)
(-9.06317e-18 -6.45364e-06 0)
(-7.08076e-18 -6.45364e-06 0)
(-7.47283e-18 -6.45364e-06 0)
(-1.01068e-17 -6.45364e-06 0)
(-1.46361e-17 -6.45364e-06 0)
(-4.45767e-18 -6.45364e-06 0)
(5.87079e-18 -6.45364e-06 0)
(1.79083e-17 -6.45364e-06 0)
(3.31735e-17 -6.45364e-06 0)
(2.09737e-17 -6.45364e-06 0)
(1.31398e-17 -6.45364e-06 0)
(9.22173e-18 -6.45364e-06 0)
(8.60507e-18 -6.45364e-06 0)
(1.05636e-17 -6.45364e-06 0)
(1.45002e-17 -6.45364e-06 0)
(-1.19792e-17 -6.45364e-06 0)
(-6.1045e-18 -6.45364e-06 0)
(4.80998e-19 -6.45364e-06 0)
(8.57785e-18 -6.45364e-06 0)
(1.92197e-17 -6.45364e-06 0)
(3.35494e-17 -6.45364e-06 0)
(2.0527e-17 -6.45364e-06 0)
(1.16322e-17 -6.45365e-06 0)
(6.06421e-18 -6.45364e-06 0)
(2.9091e-18 -6.45365e-06 0)
(1.29418e-18 -6.45364e-06 0)
(5.64642e-19 -6.45365e-06 0)
(3.31813e-19 -6.45364e-06 0)
(4.59821e-19 -6.45365e-06 0)
(1.06589e-18 -6.45365e-06 0)
(2.578e-18 -6.45365e-06 0)
(5.84345e-18 -6.45365e-06 0)
(1.22193e-17 -6.45365e-06 0)
(2.35197e-17 -6.45365e-06 0)
(4.17059e-17 -6.45365e-06 0)
(6.86252e-17 -6.45364e-06 0)
(4.17057e-17 -6.45366e-06 0)
(2.35194e-17 -6.45365e-06 0)
(1.22186e-17 -6.45366e-06 0)
(5.84149e-18 -6.45364e-06 0)
(2.57131e-18 -6.45366e-06 0)
(1.04384e-18 -6.45364e-06 0)
(3.91754e-19 -6.45366e-06 0)
(1.36309e-19 -6.45364e-06 0)
(4.41061e-20 -6.45379e-06 0)
(1.33133e-20 -6.45312e-06 0)
(3.76022e-21 -6.4541e-06 0)
(9.96747e-22 -6.45387e-06 0)
(2.48653e-22 -6.47547e-06 0)
(5.85549e-23 -6.33159e-06 0)
(1.30355e-23 -6.50383e-06 0)
(2.75414e-24 -7.48531e-06 0)
(5.5388e-25 -6.74402e-06 0)
(1.05466e-25 8.727e-06 0)
(2.1905e-26 7.51175e-06 0)
(3.20343e-27 -0.000338918 0)
(2.8098e-27 -9.75639e-05 0)
(2.14138e-27 -0.000175181 0)
(1.61965e-27 -0.000326072 0)
(1.22534e-27 -0.000232463 0)
(9.27222e-28 -0.000228827 0)
(7.00982e-28 -0.000228246 0)
(5.28695e-28 -0.000228512 0)
(3.96891e-28 -0.000228569 0)
(2.95291e-28 -0.00022855 0)
(2.16082e-28 -0.000228544 0)
(1.53189e-28 -0.000228546 0)
(1.01825e-28 -0.000228518 0)
(5.81143e-29 -0.000228481 0)
(1.87658e-29 -0.000228045 0)
)
;

boundaryField
{
    inlet
    {
        type            cyclic;
    }
    outlet
    {
        type            cyclic;
    }
    top
    {
        type            fixedValue;
        value           uniform (0 0 0);
    }
    bottom
    {
        type            fixedValue;
        value           uniform (0 0 0);
    }
    frontAndBackPlanes
    {
        type            empty;
    }
}


// ************************************************************************* //
