/*--------------------------------*- C++ -*----------------------------------*\
| =========                 |                                                 |
| \\      /  F ield         | OpenFOAM: The Open Source CFD Toolbox           |
|  \\    /   O peration     | Version:  v2006                                 |
|   \\  /    A nd           | Website:  www.openfoam.com                      |
|    \\/     M anipulation  |                                                 |
\*---------------------------------------------------------------------------*/
FoamFile
{
    version     2.0;
    format      ascii;
    class       volVectorField;
    location    "160";
    object      Ub;
}
// * * * * * * * * * * * * * * * * * * * * * * * * * * * * * * * * * * * * * //

dimensions      [0 1 -1 0 0 0 0];


internalField   nonuniform List<vector> 
120
(
(-5.74593e-22 1.73719e-08 0)
(-1.72558e-21 5.35797e-08 0)
(-2.76723e-21 9.25524e-08 0)
(-4.12941e-21 1.35016e-07 0)
(-5.35582e-21 1.82058e-07 0)
(-6.53396e-21 2.35754e-07 0)
(-6.96594e-21 2.94383e-07 0)
(-9.15437e-21 3.68908e-07 0)
(-1.31535e-20 5.14666e-07 0)
(-2.33057e-20 8.93648e-07 0)
(-9.96213e-20 9.58193e-07 0)
(-1.14578e-18 2.46586e-07 0)
(-2.65387e-18 7.98955e-06 0)
(-1.58048e-18 7.9763e-06 0)
(-8.26997e-19 6.79233e-06 0)
(-4.19602e-19 6.57384e-06 0)
(-2.64408e-19 6.50043e-06 0)
(-3.22847e-19 6.46837e-06 0)
(-6.49845e-19 6.4581e-06 0)
(-1.4159e-18 6.455e-06 0)
(-2.91269e-18 6.45405e-06 0)
(-5.51428e-18 6.45381e-06 0)
(-9.5646e-18 6.45372e-06 0)
(-1.51976e-17 6.45371e-06 0)
(-6.58384e-18 6.45369e-06 0)
(1.43257e-18 6.45369e-06 0)
(9.98864e-18 6.45368e-06 0)
(1.26453e-17 6.45369e-06 0)
(1.8481e-17 6.45368e-06 0)
(2.84465e-17 6.45368e-06 0)
(2.7322e-17 6.45367e-06 0)
(1.47138e-17 6.45367e-06 0)
(5.09337e-18 6.45366e-06 0)
(-3.09898e-18 6.45366e-06 0)
(-1.14719e-17 6.45366e-06 0)
(-2.12412e-17 6.45366e-06 0)
(-1.73224e-17 6.45366e-06 0)
(6.20541e-19 6.45366e-06 0)
(2.42082e-18 6.45365e-06 0)
(2.04646e-17 6.45365e-06 0)
(9.12696e-18 6.45365e-06 0)
(1.58512e-17 6.45365e-06 0)
(9.82999e-18 6.45365e-06 0)
(6.73922e-18 6.45365e-06 0)
(6.57191e-18 6.45365e-06 0)
(2.47618e-17 6.45365e-06 0)
(1.41568e-17 6.45365e-06 0)
(5.06189e-18 6.45365e-06 0)
(-1.9263e-17 6.45365e-06 0)
(-1.32871e-17 6.45365e-06 0)
(-9.06326e-18 6.45364e-06 0)
(-7.08086e-18 6.45364e-06 0)
(-7.47291e-18 6.45364e-06 0)
(-1.01068e-17 6.45364e-06 0)
(-1.45633e-17 6.45364e-06 0)
(-4.45766e-18 6.45364e-06 0)
(5.87085e-18 6.45364e-06 0)
(1.79084e-17 6.45364e-06 0)
(3.30279e-17 6.45364e-06 0)
(2.09739e-17 6.45364e-06 0)
(1.314e-17 6.45364e-06 0)
(9.22186e-18 6.45364e-06 0)
(8.60517e-18 6.45364e-06 0)
(1.05637e-17 6.45364e-06 0)
(1.43545e-17 6.45364e-06 0)
(-1.18334e-17 6.45364e-06 0)
(-6.10445e-18 6.45364e-06 0)
(4.81055e-19 6.45364e-06 0)
(8.57795e-18 6.45364e-06 0)
(1.92199e-17 6.45364e-06 0)
(3.34038e-17 6.45364e-06 0)
(2.05271e-17 6.45365e-06 0)
(1.16324e-17 6.45364e-06 0)
(6.06431e-18 6.45365e-06 0)
(2.90916e-18 6.45365e-06 0)
(1.29422e-18 6.45365e-06 0)
(5.64661e-19 6.45365e-06 0)
(3.31827e-19 6.45365e-06 0)
(4.5984e-19 6.45365e-06 0)
(1.06593e-18 6.45365e-06 0)
(2.57807e-18 6.45365e-06 0)
(5.84357e-18 6.45365e-06 0)
(1.22195e-17 6.45365e-06 0)
(2.352e-17 6.45366e-06 0)
(4.17062e-17 6.45365e-06 0)
(6.8334e-17 6.45366e-06 0)
(4.1706e-17 6.45365e-06 0)
(2.35197e-17 6.45366e-06 0)
(1.22188e-17 6.45365e-06 0)
(5.84162e-18 6.45367e-06 0)
(2.57137e-18 6.45365e-06 0)
(1.04388e-18 6.45368e-06 0)
(3.9177e-19 6.45366e-06 0)
(1.36316e-19 6.45368e-06 0)
(4.41085e-20 6.45352e-06 0)
(1.33141e-20 6.45421e-06 0)
(3.76049e-21 6.45313e-06 0)
(9.96827e-22 6.45376e-06 0)
(2.48675e-22 6.43077e-06 0)
(5.85606e-23 6.57904e-06 0)
(1.30369e-23 6.39564e-06 0)
(2.75446e-24 5.4288e-06 0)
(5.53949e-25 6.18846e-06 0)
(1.05481e-25 2.13433e-05 0)
(2.19076e-26 2.17906e-05 0)
(3.2041e-27 -0.000324113 0)
(2.80986e-27 6.82446e-06 0)
(2.14012e-27 5.14452e-05 0)
(1.61914e-27 1.56326e-06 0)
(1.2254e-27 -3.94991e-06 0)
(9.27278e-28 -2.80732e-07 0)
(7.01016e-28 2.96831e-07 0)
(5.28728e-28 3.38676e-08 0)
(3.9691e-28 -2.1755e-08 0)
(2.95311e-28 -3.48385e-09 0)
(2.16094e-28 1.59889e-09 0)
(1.53196e-28 3.85867e-10 0)
(1.01833e-28 -6.51334e-11 0)
(5.81203e-29 1.68403e-11 0)
(1.87684e-29 5.32085e-11 0)
)
;

boundaryField
{
    inlet
    {
        type            cyclic;
    }
    outlet
    {
        type            cyclic;
    }
    top
    {
        type            fixedValue;
        value           uniform (0 0 0);
    }
    bottom
    {
        type            fixedValue;
        value           uniform (0 0 0);
    }
    frontAndBackPlanes
    {
        type            empty;
    }
}


// ************************************************************************* //
