/*--------------------------------*- C++ -*----------------------------------*\
| =========                 |                                                 |
| \\      /  F ield         | OpenFOAM: The Open Source CFD Toolbox           |
|  \\    /   O peration     | Version:  2206                                  |
|   \\  /    A nd           | Website:  www.openfoam.com                      |
|    \\/     M anipulation  |                                                 |
\*---------------------------------------------------------------------------*/
FoamFile
{
    version     2.0;
    format      ascii;
    arch        "LSB;label=32;scalar=64";
    class       volScalarField;
    location    "1240";
    object      nuFra;
}
// * * * * * * * * * * * * * * * * * * * * * * * * * * * * * * * * * * * * * //

dimensions      [0 2 -1 0 0 0 0];

internalField   nonuniform List<scalar> 
120
(
1
1
1
1
1
1
1
1
1
1
1
1
1
1
1
1
1
1
1
1
1
1
1
1
1
1
1
1
1
1
1
1
1
1
1
1
1
1
1
1
1
1
1
1
1
1
1
1
1
1
1
1
1
1
1
1
1
1
1
1
1
1
1
1
1
1
1
1
1
1
1
1
1
1
1
1
1
1
1
0.973336
0.413596
0.345962
1
1.21057e-08
9.25491e-08
1.54912e-08
6.85524e-08
2.21158e-07
1.59902e-08
1.41892e-08
6.51098e-10
1.03129e-09
1.53432e-09
2.20674e-08
3.79231e-07
2.64936e-08
7.26574e-09
9.31462e-09
2.17324e-08
5.91303e-08
1.14946e-07
1.53313e-07
1.71049e-07
1.96426e-07
2.60279e-07
4.19279e-07
8.36946e-07
2.08713e-06
6.4831e-06
2.39238e-05
8.69381e-05
0.000210895
0.000295341
0.00029329
0.000204349
7.48897e-05
1.343e-05
1.31509e-06
6.06275e-08
4.76638e-10
)
;

boundaryField
{
    inlet
    {
        type            cyclic;
    }
    outlet
    {
        type            cyclic;
    }
    top
    {
        type            calculated;
        value           uniform 2.40127e-10;
    }
    bottom
    {
        type            calculated;
        value           uniform 1;
    }
    frontAndBackPlanes
    {
        type            empty;
    }
}


// ************************************************************************* //
