/*--------------------------------*- C++ -*----------------------------------*\
| =========                 |                                                 |
| \\      /  F ield         | OpenFOAM: The Open Source CFD Toolbox           |
|  \\    /   O peration     | Version:  2206                                  |
|   \\  /    A nd           | Website:  www.openfoam.com                      |
|    \\/     M anipulation  |                                                 |
\*---------------------------------------------------------------------------*/
FoamFile
{
    version     2.0;
    format      ascii;
    arch        "LSB;label=32;scalar=64";
    class       volScalarField;
    location    "1240";
    object      pff;
}
// * * * * * * * * * * * * * * * * * * * * * * * * * * * * * * * * * * * * * //

dimensions      [1 -1 -2 0 0 0 0];

internalField   nonuniform List<scalar> 
120
(
22.0007
21.467
21.47
20.8919
20.8789
20.3135
20.289
19.7373
19.7004
19.1632
19.1131
18.5914
18.5273
18.0217
17.9432
17.454
17.3608
16.8885
16.7804
16.325
16.2019
15.7635
15.6257
15.204
15.0518
14.6464
14.4804
14.0908
13.9116
13.5372
13.3456
12.9856
12.7825
12.436
12.2225
11.8884
11.6656
11.3429
11.112
10.7996
10.5617
10.2586
10.0149
9.72003
9.4717
9.18406
8.9322
8.65087
8.39651
8.12067
7.86475
7.59366
7.33701
7.07006
6.81339
6.55007
6.29398
6.03391
5.77891
5.52184
5.26839
5.0142
4.76271
4.5114
4.26226
4.01391
3.76746
3.52213
3.27853
3.03613
2.79528
2.5554
2.31679
2.07857
1.84103
1.6035
1.36288
1.11523
0.873765
0.660991
0.468911
0.31037
0.220509
0
0
0
0
0
0
0
0
0
0
0
0
0
0
0
0
0
0
0
0
0
0
0
0
0
0
0
0
0
0
0
0
0
0
0
0
0
)
;

boundaryField
{
    inlet
    {
        type            cyclic;
    }
    outlet
    {
        type            cyclic;
    }
    top
    {
        type            calculated;
        value           uniform 0;
    }
    bottom
    {
        type            calculated;
        value           uniform 22.0007;
    }
    frontAndBackPlanes
    {
        type            empty;
    }
}


// ************************************************************************* //
