/*--------------------------------*- C++ -*----------------------------------*\
| =========                 |                                                 |
| \\      /  F ield         | OpenFOAM: The Open Source CFD Toolbox           |
|  \\    /   O peration     | Version:  2206                                  |
|   \\  /    A nd           | Website:  www.openfoam.com                      |
|    \\/     M anipulation  |                                                 |
\*---------------------------------------------------------------------------*/
FoamFile
{
    version     2.0;
    format      ascii;
    arch        "LSB;label=32;scalar=64";
    class       surfaceScalarField;
    location    "1240";
    object      phi.b;
}
// * * * * * * * * * * * * * * * * * * * * * * * * * * * * * * * * * * * * * //

dimensions      [0 3 -1 0 0 0 0];

oriented        oriented;

internalField   nonuniform List<scalar> 
119
(
1.44766e-15
2.93031e-15
4.41402e-15
5.93568e-15
7.46118e-15
9.02392e-15
1.05935e-14
1.21997e-14
1.38159e-14
1.54675e-14
1.71326e-14
1.88319e-14
2.05485e-14
2.22983e-14
2.40694e-14
2.58724e-14
2.77008e-14
2.95603e-14
3.14497e-14
3.33689e-14
3.53227e-14
3.73057e-14
3.93283e-14
4.13796e-14
4.34752e-14
4.55994e-14
4.77728e-14
4.99753e-14
5.22318e-14
5.4518e-14
5.68633e-14
5.92395e-14
6.16793e-14
6.41521e-14
6.66933e-14
6.92702e-14
7.192e-14
7.46096e-14
7.73773e-14
8.01895e-14
8.30855e-14
8.60328e-14
8.90697e-14
9.21662e-14
9.53597e-14
9.86223e-14
1.0199e-13
1.05438e-13
1.08999e-13
1.12653e-13
1.16429e-13
1.20311e-13
1.24326e-13
1.28462e-13
1.32742e-13
1.37159e-13
1.41739e-13
1.46479e-13
1.51406e-13
1.56527e-13
1.61873e-13
1.67461e-13
1.73327e-13
1.79499e-13
1.86016e-13
1.92913e-13
2.0023e-13
2.07999e-13
2.16253e-13
2.2502e-13
2.34333e-13
2.44232e-13
2.54798e-13
2.66196e-13
2.78703e-13
2.92917e-13
3.10197e-13
3.32233e-13
3.58752e-13
3.94378e-13
4.52266e-13
4.97069e-13
4.98868e-13
1.56583e-12
2.00438e-12
2.17193e-12
2.25235e-12
2.29033e-12
2.31759e-12
2.37763e-12
2.01124e-12
9.86632e-12
1.09654e-12
5.19954e-15
6.64978e-17
-1.5085e-19
-5.93115e-19
-7.29652e-19
5.34212e-19
6.79472e-19
2.30213e-19
9.79792e-19
1.41619e-19
-6.38965e-19
-4.7114e-19
-1.6553e-19
-2.81823e-19
-2.20264e-19
-1.41361e-19
-1.90243e-19
7.25471e-19
2.61695e-19
2.73793e-20
-1.06324e-19
-7.67872e-19
-2.37476e-19
-7.8096e-19
9.34062e-20
2.65972e-19
)
;

boundaryField
{
    inlet
    {
        type            cyclic;
        value           nonuniform List<scalar> 
120
(
-2.43759e-27
-7.31772e-27
-1.2213e-26
-1.71201e-26
-2.20579e-26
-2.70305e-26
-3.2065e-26
-3.71106e-26
-4.22084e-26
-4.74253e-26
-5.26912e-26
-5.80048e-26
-6.34825e-26
-6.90251e-26
-7.46766e-26
-8.04463e-26
-8.63433e-26
-9.23768e-26
-9.85563e-26
-1.04892e-25
-1.11392e-25
-1.18068e-25
-1.24929e-25
-1.31666e-25
-1.39261e-25
-1.46754e-25
-1.54659e-25
-1.62427e-25
-1.70633e-25
-1.79528e-25
-1.88276e-25
-1.96837e-25
-2.0614e-25
-2.15756e-25
-2.25681e-25
-2.35395e-25
-2.45728e-25
-2.57599e-25
-2.67482e-25
-2.80796e-25
-2.90706e-25
-3.04251e-25
-3.16192e-25
-3.29212e-25
-3.41921e-25
-3.58119e-25
-3.70879e-25
-3.86444e-25
-3.99092e-25
-4.16501e-25
-4.32685e-25
-4.49346e-25
-4.665e-25
-4.84151e-25
-5.01274e-25
-5.21035e-25
-5.40289e-25
-5.60091e-25
-5.82833e-25
-6.01428e-25
-6.2298e-25
-6.45144e-25
-6.67933e-25
-6.91384e-25
-7.1842e-25
-7.37214e-25
-7.65854e-25
-7.92312e-25
-8.19654e-25
-8.47977e-25
-8.80989e-25
-9.0754e-25
-9.38725e-25
-9.70751e-25
-1.00347e-24
-1.03697e-24
-1.07201e-24
-1.1105e-24
-1.15565e-24
-1.21165e-24
-1.30434e-24
-1.47025e-24
-1.54077e-24
-1.74907e-24
-3.25785e-23
-4.36203e-23
-3.55264e-23
-2.92316e-23
-2.45187e-23
-2.10172e-23
-1.84494e-23
-1.6795e-23
-1.65386e-23
-1.58387e-23
-1.51164e-23
-1.44061e-23
-1.37075e-23
-1.30207e-23
-1.23456e-23
-1.16821e-23
-1.10302e-23
-1.03895e-23
-9.75989e-24
-9.14103e-24
-8.53252e-24
-7.93393e-24
-7.34476e-24
-6.76444e-24
-6.19241e-24
-5.62804e-24
-5.07071e-24
-4.51976e-24
-3.97453e-24
-3.43436e-24
-2.89858e-24
-2.3665e-24
-1.83745e-24
-1.31077e-24
-7.85769e-25
-2.61778e-25
)
;
    }
    outlet
    {
        type            cyclic;
        value           nonuniform List<scalar> 
120
(
2.43759e-27
7.31772e-27
1.2213e-26
1.71201e-26
2.20579e-26
2.70305e-26
3.2065e-26
3.71106e-26
4.22084e-26
4.74253e-26
5.26912e-26
5.80048e-26
6.34825e-26
6.90251e-26
7.46766e-26
8.04463e-26
8.63433e-26
9.23768e-26
9.85563e-26
1.04892e-25
1.11392e-25
1.18068e-25
1.24929e-25
1.31666e-25
1.39261e-25
1.46754e-25
1.54659e-25
1.62427e-25
1.70633e-25
1.79528e-25
1.88276e-25
1.96837e-25
2.0614e-25
2.15756e-25
2.25681e-25
2.35395e-25
2.45728e-25
2.57599e-25
2.67482e-25
2.80796e-25
2.90706e-25
3.04251e-25
3.16192e-25
3.29212e-25
3.41921e-25
3.58119e-25
3.70879e-25
3.86444e-25
3.99092e-25
4.16501e-25
4.32685e-25
4.49346e-25
4.665e-25
4.84151e-25
5.01274e-25
5.21035e-25
5.40289e-25
5.60091e-25
5.82833e-25
6.01428e-25
6.2298e-25
6.45144e-25
6.67933e-25
6.91384e-25
7.1842e-25
7.37214e-25
7.65854e-25
7.92312e-25
8.19654e-25
8.47977e-25
8.80989e-25
9.0754e-25
9.38725e-25
9.70751e-25
1.00347e-24
1.03697e-24
1.07201e-24
1.1105e-24
1.15565e-24
1.21165e-24
1.30434e-24
1.47025e-24
1.54077e-24
1.74907e-24
3.25785e-23
4.36203e-23
3.55264e-23
2.92316e-23
2.45187e-23
2.10172e-23
1.84494e-23
1.6795e-23
1.65386e-23
1.58387e-23
1.51164e-23
1.44061e-23
1.37075e-23
1.30207e-23
1.23456e-23
1.16821e-23
1.10302e-23
1.03895e-23
9.75989e-24
9.14103e-24
8.53252e-24
7.93393e-24
7.34476e-24
6.76444e-24
6.19241e-24
5.62804e-24
5.07071e-24
4.51976e-24
3.97453e-24
3.43436e-24
2.89858e-24
2.3665e-24
1.83745e-24
1.31077e-24
7.85769e-25
2.61778e-25
)
;
    }
    top
    {
        type            fixedValue;
        value           uniform 0;
    }
    bottom
    {
        type            fixedValue;
        value           uniform 0;
    }
    frontAndBackPlanes
    {
        type            empty;
        value           nonuniform List<scalar> 0();
    }
}


// ************************************************************************* //
