/*--------------------------------*- C++ -*----------------------------------*\
| =========                 |                                                 |
| \\      /  F ield         | OpenFOAM: The Open Source CFD Toolbox           |
|  \\    /   O peration     | Version:  2206                                  |
|   \\  /    A nd           | Website:  www.openfoam.com                      |
|    \\/     M anipulation  |                                                 |
\*---------------------------------------------------------------------------*/
FoamFile
{
    version     2.0;
    format      ascii;
    arch        "LSB;label=32;scalar=64";
    class       surfaceScalarField;
    location    "1240";
    object      phi.a;
}
// * * * * * * * * * * * * * * * * * * * * * * * * * * * * * * * * * * * * * //

dimensions      [0 3 -1 0 0 0 0];

oriented        oriented;

internalField   nonuniform List<scalar> 
119
(
-9.67954e-16
-1.95964e-15
-2.95247e-15
-3.97118e-15
-4.99304e-15
-6.04039e-15
-7.09283e-15
-8.17026e-15
-9.25494e-15
-1.0364e-14
-1.14827e-14
-1.2625e-14
-1.37795e-14
-1.4957e-14
-1.61494e-14
-1.73641e-14
-1.85965e-14
-1.98506e-14
-2.11255e-14
-2.24215e-14
-2.37415e-14
-2.50822e-14
-2.64502e-14
-2.78387e-14
-2.92579e-14
-3.06976e-14
-3.21715e-14
-3.36662e-14
-3.51985e-14
-3.67522e-14
-3.83469e-14
-3.99641e-14
-4.16254e-14
-4.33109e-14
-4.50438e-14
-4.68029e-14
-4.86129e-14
-5.04518e-14
-5.23452e-14
-5.42713e-14
-5.62559e-14
-5.82779e-14
-6.03629e-14
-6.24911e-14
-6.46876e-14
-6.69342e-14
-6.9255e-14
-7.16338e-14
-7.40931e-14
-7.66194e-14
-7.9233e-14
-8.1923e-14
-8.47081e-14
-8.75802e-14
-9.05566e-14
-9.36329e-14
-9.68258e-14
-1.00136e-13
-1.03581e-13
-1.07168e-13
-1.10917e-13
-1.14842e-13
-1.1897e-13
-1.23319e-13
-1.2792e-13
-1.32798e-13
-1.37983e-13
-1.435e-13
-1.49375e-13
-1.55632e-13
-1.62298e-13
-1.69409e-13
-1.77028e-13
-1.85283e-13
-1.94382e-13
-2.0477e-13
-2.17448e-13
-2.33668e-13
-2.53278e-13
-2.79648e-13
-3.22325e-13
-3.55968e-13
-3.75739e-13
-1.31009e-12
-1.83433e-12
-2.08402e-12
-2.20759e-12
-2.26516e-12
-2.30764e-12
-2.50298e-12
-1.9638e-12
-2.49586e-11
-7.40696e-11
-7.24799e-11
-6.77136e-11
-6.94189e-11
-7.37542e-11
-7.82711e-11
-8.00595e-11
-8.07297e-11
-8.10694e-11
-8.13215e-11
-8.1546e-11
-8.17418e-11
-8.18899e-11
-8.19821e-11
-8.20284e-11
-8.20469e-11
-8.20529e-11
-8.20545e-11
-8.20549e-11
-8.20551e-11
-8.20551e-11
-8.20551e-11
-8.20549e-11
-8.20544e-11
-8.20515e-11
-8.2022e-11
-8.13822e-11
)
;

boundaryField
{
    inlet
    {
        type            cyclic;
        value           nonuniform List<scalar> 
120
(
-2.43759e-27
-7.31771e-27
-1.22094e-26
-1.71201e-26
-2.20579e-26
-2.70304e-26
-3.20455e-26
-3.71106e-26
-4.22343e-26
-4.74254e-26
-5.26914e-26
-5.80407e-26
-6.34827e-26
-6.90251e-26
-7.46766e-26
-8.04463e-26
-8.63433e-26
-9.23768e-26
-9.85563e-26
-1.04892e-25
-1.11392e-25
-1.18068e-25
-1.2493e-25
-1.31989e-25
-1.39262e-25
-1.46753e-25
-1.54473e-25
-1.62427e-25
-1.70632e-25
-1.79099e-25
-1.87829e-25
-1.96835e-25
-2.0614e-25
-2.15756e-25
-2.25684e-25
-2.35943e-25
-2.46293e-25
-2.57017e-25
-2.68082e-25
-2.7954e-25
-2.91351e-25
-3.03577e-25
-3.16189e-25
-3.29216e-25
-3.42665e-25
-3.56567e-25
-3.70869e-25
-3.8562e-25
-4.00809e-25
-4.16509e-25
-4.32685e-25
-4.49346e-25
-4.665e-25
-4.84156e-25
-5.02324e-25
-5.2104e-25
-5.40289e-25
-5.60081e-25
-5.80438e-25
-6.01417e-25
-6.2298e-25
-6.45144e-25
-6.67933e-25
-6.9137e-25
-7.15489e-25
-7.40255e-25
-7.65868e-25
-7.92312e-25
-8.19654e-25
-8.47959e-25
-8.77277e-25
-9.07522e-25
-9.38725e-25
-9.70751e-25
-1.00347e-24
-1.03697e-24
-1.07201e-24
-1.1105e-24
-1.15565e-24
-1.21152e-24
-1.30396e-24
-1.47056e-24
-1.53983e-24
-1.55868e-24
-3.25792e-23
-4.37029e-23
-3.55262e-23
-2.92315e-23
-2.45187e-23
-2.10172e-23
-1.84493e-23
-1.67949e-23
-1.65389e-23
-1.55308e-23
-1.51826e-23
-1.4889e-23
-1.21697e-23
-7.71156e-24
-5.26313e-24
-4.14384e-24
-3.47474e-24
-2.89071e-24
-2.26626e-24
-1.60295e-24
-9.96252e-25
-5.48932e-25
-2.89138e-25
-1.70979e-25
-1.28809e-25
-1.16563e-25
-1.13203e-25
-1.12038e-25
-1.11482e-25
-1.11164e-25
-1.10978e-25
-1.10881e-25
-1.10869e-25
-1.11064e-25
-1.12137e-25
-1.15168e-25
)
;
    }
    outlet
    {
        type            cyclic;
        value           nonuniform List<scalar> 
120
(
2.43759e-27
7.31771e-27
1.22094e-26
1.71201e-26
2.20579e-26
2.70304e-26
3.20455e-26
3.71106e-26
4.22343e-26
4.74254e-26
5.26914e-26
5.80407e-26
6.34827e-26
6.90251e-26
7.46766e-26
8.04463e-26
8.63433e-26
9.23768e-26
9.85563e-26
1.04892e-25
1.11392e-25
1.18068e-25
1.2493e-25
1.31989e-25
1.39262e-25
1.46753e-25
1.54473e-25
1.62427e-25
1.70632e-25
1.79099e-25
1.87829e-25
1.96835e-25
2.0614e-25
2.15756e-25
2.25684e-25
2.35943e-25
2.46293e-25
2.57017e-25
2.68082e-25
2.7954e-25
2.91351e-25
3.03577e-25
3.16189e-25
3.29216e-25
3.42665e-25
3.56567e-25
3.70869e-25
3.8562e-25
4.00809e-25
4.16509e-25
4.32685e-25
4.49346e-25
4.665e-25
4.84156e-25
5.02324e-25
5.2104e-25
5.40289e-25
5.60081e-25
5.80438e-25
6.01417e-25
6.2298e-25
6.45144e-25
6.67933e-25
6.9137e-25
7.15489e-25
7.40255e-25
7.65868e-25
7.92312e-25
8.19654e-25
8.47959e-25
8.77277e-25
9.07522e-25
9.38725e-25
9.70751e-25
1.00347e-24
1.03697e-24
1.07201e-24
1.1105e-24
1.15565e-24
1.21152e-24
1.30396e-24
1.47056e-24
1.53983e-24
1.55868e-24
3.25792e-23
4.37029e-23
3.55262e-23
2.92315e-23
2.45187e-23
2.10172e-23
1.84493e-23
1.67949e-23
1.65389e-23
1.55308e-23
1.51826e-23
1.4889e-23
1.21697e-23
7.71156e-24
5.26313e-24
4.14384e-24
3.47474e-24
2.89071e-24
2.26626e-24
1.60295e-24
9.96252e-25
5.48932e-25
2.89138e-25
1.70979e-25
1.28809e-25
1.16563e-25
1.13203e-25
1.12038e-25
1.11482e-25
1.11164e-25
1.10978e-25
1.10881e-25
1.10869e-25
1.11064e-25
1.12137e-25
1.15168e-25
)
;
    }
    top
    {
        type            fixedValue;
        value           uniform 0;
    }
    bottom
    {
        type            fixedValue;
        value           uniform 0;
    }
    frontAndBackPlanes
    {
        type            empty;
        value           nonuniform List<scalar> 0();
    }
}


// ************************************************************************* //
