/*--------------------------------*- C++ -*----------------------------------*\
| =========                 |                                                 |
| \\      /  F ield         | OpenFOAM: The Open Source CFD Toolbox           |
|  \\    /   O peration     | Version:  2206                                  |
|   \\  /    A nd           | Website:  www.openfoam.com                      |
|    \\/     M anipulation  |                                                 |
\*---------------------------------------------------------------------------*/
FoamFile
{
    version     2.0;
    format      ascii;
    arch        "LSB;label=32;scalar=64";
    class       volVectorField;
    location    "1240";
    object      U.a;
}
// * * * * * * * * * * * * * * * * * * * * * * * * * * * * * * * * * * * * * //

dimensions      [0 1 -1 0 0 0 0];

internalField   nonuniform List<vector> 
120
(
(8.12528e-21 1.43225e-08 0)
(2.43924e-20 -3.74592e-09 0)
(4.06978e-20 -7.14094e-09 0)
(5.70671e-20 -9.2611e-09 0)
(7.35262e-20 -1.2801e-08 0)
(9.01013e-20 -1.49374e-08 0)
(1.06818e-19 -1.86202e-08 0)
(1.23702e-19 -2.07837e-08 0)
(1.40781e-19 -2.46065e-08 0)
(1.58085e-19 -2.68092e-08 0)
(1.75638e-19 -3.07683e-08 0)
(1.93469e-19 -3.30236e-08 0)
(2.11609e-19 -3.71151e-08 0)
(2.30084e-19 -3.94373e-08 0)
(2.48922e-19 -4.36571e-08 0)
(2.68154e-19 -4.60615e-08 0)
(2.87811e-19 -5.04053e-08 0)
(3.07923e-19 -5.29083e-08 0)
(3.28521e-19 -5.73723e-08 0)
(3.49638e-19 -5.99911e-08 0)
(3.71307e-19 -6.4572e-08 0)
(3.93562e-19 -6.73246e-08 0)
(4.16435e-19 -7.202e-08 0)
(4.39962e-19 -7.49249e-08 0)
(4.64207e-19 -7.97336e-08 0)
(4.89178e-19 -8.28097e-08 0)
(5.14909e-19 -8.77318e-08 0)
(5.41422e-19 -9.09983e-08 0)
(5.68772e-19 -9.60354e-08 0)
(5.96996e-19 -9.95112e-08 0)
(6.26098e-19 -1.04667e-07 0)
(6.56116e-19 -1.08371e-07 0)
(6.87134e-19 -1.13651e-07 0)
(7.19186e-19 -1.17601e-07 0)
(7.52279e-19 -1.23014e-07 0)
(7.86477e-19 -1.27229e-07 0)
(8.20978e-19 -1.32786e-07 0)
(8.56725e-19 -1.37285e-07 0)
(8.93608e-19 -1.43001e-07 0)
(9.31799e-19 -1.47805e-07 0)
(9.71171e-19 -1.53701e-07 0)
(1.01192e-18 -1.58831e-07 0)
(1.05396e-18 -1.64933e-07 0)
(1.09739e-18 -1.70415e-07 0)
(1.14222e-18 -1.76756e-07 0)
(1.18856e-18 -1.82618e-07 0)
(1.23623e-18 -1.89237e-07 0)
(1.2854e-18 -1.95512e-07 0)
(1.33603e-18 -2.02452e-07 0)
(1.38836e-18 -2.09175e-07 0)
(1.44228e-18 -2.16486e-07 0)
(1.49782e-18 -2.23695e-07 0)
(1.555e-18 -2.31431e-07 0)
(1.61385e-18 -2.39168e-07 0)
(1.67441e-18 -2.47387e-07 0)
(1.7368e-18 -2.55703e-07 0)
(1.80096e-18 -2.64477e-07 0)
(1.86694e-18 -2.73442e-07 0)
(1.93479e-18 -2.82866e-07 0)
(2.00472e-18 -2.92581e-07 0)
(2.0766e-18 -3.02791e-07 0)
(2.15048e-18 -3.13409e-07 0)
(2.22644e-18 -3.24599e-07 0)
(2.30457e-18 -3.36338e-07 0)
(2.38496e-18 -3.48764e-07 0)
(2.46752e-18 -3.619e-07 0)
(2.55289e-18 -3.75863e-07 0)
(2.64104e-18 -3.90703e-07 0)
(2.73218e-18 -4.0651e-07 0)
(2.82653e-18 -4.23343e-07 0)
(2.92426e-18 -4.41271e-07 0)
(3.02507e-18 -4.60377e-07 0)
(3.12908e-18 -4.80774e-07 0)
(3.23584e-18 -5.02707e-07 0)
(3.34489e-18 -5.2663e-07 0)
(3.45655e-18 -5.53248e-07 0)
(3.57336e-18 -5.84321e-07 0)
(3.70168e-18 -6.23659e-07 0)
(3.85217e-18 -6.74434e-07 0)
(4.03839e-18 -7.32475e-07 0)
(4.34653e-18 -8.19977e-07 0)
(4.90185e-18 -9.7115e-07 0)
(5.13277e-18 -1.00903e-06 0)
(5.1956e-18 -1.00564e-06 0)
(1.08597e-16 -1.90496e-05 0)
(1.45676e-16 -3.32581e-06 0)
(1.18421e-16 -4.88195e-06 0)
(9.74384e-17 -6.47707e-06 0)
(8.17291e-17 -5.87002e-06 0)
(7.00573e-17 7.02521e-06 0)
(6.14978e-17 9.24705e-06 0)
(5.59831e-17 -0.000324793 0)
(5.51296e-17 -0.000199437 0)
(5.17693e-17 -0.000192573 0)
(5.06086e-17 -0.000186508 0)
(4.96299e-17 -0.000189673 0)
(4.05657e-17 -0.000196027 0)
(2.57052e-17 -0.000213741 0)
(1.75438e-17 -0.000221093 0)
(1.38128e-17 -0.000223681 0)
(1.15825e-17 -0.000224818 0)
(9.6357e-18 -0.000225568 0)
(7.55419e-18 -0.000226218 0)
(5.34317e-18 -0.000226815 0)
(3.32084e-18 -0.000227306 0)
(1.82977e-18 -0.000227638 0)
(9.63794e-19 -0.000227818 0)
(5.6993e-19 -0.000227895 0)
(4.29364e-19 -0.000227921 0)
(3.88542e-19 -0.000227928 0)
(3.77342e-19 -0.00022793 0)
(3.73459e-19 -0.000227931 0)
(3.71607e-19 -0.000227931 0)
(3.70547e-19 -0.000227931 0)
(3.69925e-19 -0.000227931 0)
(3.69602e-19 -0.00022793 0)
(3.69562e-19 -0.000227928 0)
(3.70212e-19 -0.000227914 0)
(3.73789e-19 -0.000227764 0)
(3.83893e-19 -0.000224359 0)
)
;

boundaryField
{
    inlet
    {
        type            cyclic;
    }
    outlet
    {
        type            cyclic;
    }
    top
    {
        type            fixedValue;
        value           uniform (0 0 0);
    }
    bottom
    {
        type            fixedValue;
        value           uniform (0 0 0);
    }
    frontAndBackPlanes
    {
        type            empty;
    }
}


// ************************************************************************* //
