/*--------------------------------*- C++ -*----------------------------------*\
| =========                 |                                                 |
| \\      /  F ield         | OpenFOAM: The Open Source CFD Toolbox           |
|  \\    /   O peration     | Version:  2206                                  |
|   \\  /    A nd           | Website:  www.openfoam.com                      |
|    \\/     M anipulation  |                                                 |
\*---------------------------------------------------------------------------*/
FoamFile
{
    version     2.0;
    format      ascii;
    arch        "LSB;label=32;scalar=64";
    class       volVectorField;
    location    "1240";
    object      U.b;
}
// * * * * * * * * * * * * * * * * * * * * * * * * * * * * * * * * * * * * * //

dimensions      [0 1 -1 0 0 0 0];

internalField   nonuniform List<vector> 
120
(
(8.12529e-21 1.74043e-08 0)
(2.43924e-20 6.41646e-09 0)
(4.071e-20 9.86769e-09 0)
(5.70671e-20 1.47285e-08 0)
(7.35262e-20 1.82505e-08 0)
(9.01015e-20 2.32869e-08 0)
(1.06883e-19 2.68572e-08 0)
(1.23702e-19 3.208e-08 0)
(1.40695e-19 3.57144e-08 0)
(1.58084e-19 4.11222e-08 0)
(1.75637e-19 4.48348e-08 0)
(1.93349e-19 5.04249e-08 0)
(2.11608e-19 5.42318e-08 0)
(2.30084e-19 6.00023e-08 0)
(2.48922e-19 6.39215e-08 0)
(2.68154e-19 6.98698e-08 0)
(2.87811e-19 7.39196e-08 0)
(3.07923e-19 8.00435e-08 0)
(3.28521e-19 8.42445e-08 0)
(3.49638e-19 9.05425e-08 0)
(3.71307e-19 9.49154e-08 0)
(3.93562e-19 1.01386e-07 0)
(4.1643e-19 1.05954e-07 0)
(4.38887e-19 1.12599e-07 0)
(4.64203e-19 1.17385e-07 0)
(4.8918e-19 1.24206e-07 0)
(5.15531e-19 1.29233e-07 0)
(5.41425e-19 1.36234e-07 0)
(5.68778e-19 1.41526e-07 0)
(5.98426e-19 1.48713e-07 0)
(6.27588e-19 1.54296e-07 0)
(6.56123e-19 1.61676e-07 0)
(6.87134e-19 1.67573e-07 0)
(7.19186e-19 1.75158e-07 0)
(7.52271e-19 1.81394e-07 0)
(7.8465e-19 1.89198e-07 0)
(8.19095e-19 1.95798e-07 0)
(8.58663e-19 2.03839e-07 0)
(8.91607e-19 2.10831e-07 0)
(9.35987e-19 2.19135e-07 0)
(9.69021e-19 2.26547e-07 0)
(1.01417e-18 2.35145e-07 0)
(1.05397e-18 2.43012e-07 0)
(1.09737e-18 2.51943e-07 0)
(1.13974e-18 2.60304e-07 0)
(1.19373e-18 2.69616e-07 0)
(1.23626e-18 2.78514e-07 0)
(1.28815e-18 2.88264e-07 0)
(1.33031e-18 2.97748e-07 0)
(1.38834e-18 3.07996e-07 0)
(1.44228e-18 3.18118e-07 0)
(1.49782e-18 3.28933e-07 0)
(1.555e-18 3.39749e-07 0)
(1.61384e-18 3.51204e-07 0)
(1.67091e-18 3.6278e-07 0)
(1.73678e-18 3.74961e-07 0)
(1.80096e-18 3.87377e-07 0)
(1.86697e-18 4.00396e-07 0)
(1.94278e-18 4.13769e-07 0)
(2.00476e-18 4.27781e-07 0)
(2.0766e-18 4.42287e-07 0)
(2.15048e-18 4.57515e-07 0)
(2.22644e-18 4.73409e-07 0)
(2.30461e-18 4.90161e-07 0)
(2.39473e-18 5.07782e-07 0)
(2.45738e-18 5.26437e-07 0)
(2.55285e-18 5.46181e-07 0)
(2.64104e-18 5.67146e-07 0)
(2.73218e-18 5.894e-07 0)
(2.82659e-18 6.13045e-07 0)
(2.93663e-18 6.38153e-07 0)
(3.02513e-18 6.6484e-07 0)
(3.12908e-18 6.93286e-07 0)
(3.23584e-18 7.23857e-07 0)
(3.34489e-18 7.57157e-07 0)
(3.45655e-18 7.94562e-07 0)
(3.57336e-18 8.38989e-07 0)
(3.70168e-18 8.94189e-07 0)
(3.85218e-18 9.6065e-07 0)
(4.03883e-18 1.05211e-06 0)
(4.34781e-18 1.18972e-06 0)
(4.90084e-18 1.28962e-06 0)
(5.13589e-18 1.25033e-06 0)
(5.83025e-18 3.71675e-06 0)
(1.08595e-16 -8.69067e-06 0)
(1.45401e-16 8.06667e-06 0)
(1.18421e-16 7.29664e-06 0)
(9.74386e-17 6.08722e-06 0)
(8.17289e-17 6.85996e-06 0)
(7.00574e-17 1.97376e-05 0)
(6.14979e-17 2.31805e-05 0)
(5.59832e-17 -0.00031196 0)
(5.51288e-17 -1.02916e-05 0)
(5.27956e-17 5.88655e-05 0)
(5.03879e-17 5.7429e-06 0)
(4.80203e-17 -3.39464e-06 0)
(4.56917e-17 -8.93176e-07 0)
(4.34024e-17 1.37596e-07 0)
(4.11521e-17 8.49243e-08 0)
(3.89405e-17 7.45873e-10 0)
(3.67672e-17 -6.28513e-09 0)
(3.46317e-17 -8.83116e-10 0)
(3.2533e-17 3.54169e-10 0)
(3.04701e-17 1.14276e-10 0)
(2.84417e-17 -1.26115e-11 0)
(2.64464e-17 -1.10789e-11 0)
(2.44825e-17 -1.20084e-12 0)
(2.25481e-17 -7.82224e-14 0)
(2.06414e-17 -4.2471e-13 0)
(1.87601e-17 -4.6968e-13 0)
(1.69024e-17 7.97398e-13 0)
(1.50659e-17 1.38321e-12 0)
(1.32484e-17 3.33005e-13 0)
(1.14479e-17 -1.36991e-13 0)
(9.66192e-18 -1.13932e-12 0)
(7.88833e-18 -1.31106e-12 0)
(6.12485e-18 -1.4263e-12 0)
(4.36923e-18 -1.03718e-12 0)
(2.61923e-18 5.15896e-13 0)
(8.72594e-19 1.76365e-12 0)
)
;

boundaryField
{
    inlet
    {
        type            cyclic;
    }
    outlet
    {
        type            cyclic;
    }
    top
    {
        type            fixedValue;
        value           uniform (0 0 0);
    }
    bottom
    {
        type            fixedValue;
        value           uniform (0 0 0);
    }
    frontAndBackPlanes
    {
        type            empty;
    }
}


// ************************************************************************* //
