/*--------------------------------*- C++ -*----------------------------------*\
| =========                 |                                                 |
| \\      /  F ield         | OpenFOAM: The Open Source CFD Toolbox           |
|  \\    /   O peration     | Version:  2206                                  |
|   \\  /    A nd           | Website:  www.openfoam.com                      |
|    \\/     M anipulation  |                                                 |
\*---------------------------------------------------------------------------*/
FoamFile
{
    version     2.0;
    format      ascii;
    arch        "LSB;label=32;scalar=64";
    class       volScalarField;
    location    "1180";
    object      nuFra;
}
// * * * * * * * * * * * * * * * * * * * * * * * * * * * * * * * * * * * * * //

dimensions      [0 2 -1 0 0 0 0];

internalField   nonuniform List<scalar> 
120
(
1
1
1
1
1
1
1
1
1
1
1
1
1
1
1
1
1
1
1
1
1
1
1
1
1
1
1
1
1
1
1
1
1
1
1
1
1
1
1
1
1
1
1
1
1
1
1
1
1
1
1
1
1
1
1
1
1
1
1
1
1
1
1
1
1
1
1
1
1
1
1
1
1
1
1
1
0.512734
0.428351
1
1.11288e-08
9.32489e-08
1.37947e-08
8.54408e-08
1.486e-07
4.29445e-07
1.14546e-06
1.15691e-06
2.57814e-07
2.01183e-07
1.41497e-08
1.33581e-07
5.86845e-10
1.17237e-09
4.24871e-10
1.95467e-09
5.90346e-10
2.38446e-09
4.99975e-08
3.5944e-08
2.29586e-08
2.52519e-08
4.86229e-08
1.1693e-07
2.32557e-07
3.76052e-07
5.7083e-07
9.3106e-07
1.78549e-06
4.23674e-06
1.26296e-05
4.44944e-05
0.000141997
0.000267868
0.000303063
0.000227471
8.56694e-05
1.48033e-05
1.38411e-06
6.16542e-08
4.76521e-10
)
;

boundaryField
{
    inlet
    {
        type            cyclic;
    }
    outlet
    {
        type            cyclic;
    }
    top
    {
        type            calculated;
        value           uniform 2.4004e-10;
    }
    bottom
    {
        type            calculated;
        value           uniform 1;
    }
    frontAndBackPlanes
    {
        type            empty;
    }
}


// ************************************************************************* //
