/*--------------------------------*- C++ -*----------------------------------*\
| =========                 |                                                 |
| \\      /  F ield         | OpenFOAM: The Open Source CFD Toolbox           |
|  \\    /   O peration     | Version:  2206                                  |
|   \\  /    A nd           | Website:  www.openfoam.com                      |
|    \\/     M anipulation  |                                                 |
\*---------------------------------------------------------------------------*/
FoamFile
{
    version     2.0;
    format      ascii;
    arch        "LSB;label=32;scalar=64";
    class       volScalarField;
    location    "1180";
    object      pff;
}
// * * * * * * * * * * * * * * * * * * * * * * * * * * * * * * * * * * * * * //

dimensions      [1 -1 -2 0 0 0 0];

internalField   nonuniform List<scalar> 
120
(
20.9682
20.4348
20.4376
19.8601
19.8466
19.2823
19.2569
18.7067
18.6685
18.1335
18.0815
17.5626
17.496
16.994
16.9123
16.4276
16.3305
15.8633
15.7507
15.3013
15.173
14.7413
14.5978
14.1834
14.0251
13.6276
13.455
13.0738
12.8879
12.5221
12.3237
11.9724
11.7627
11.4248
11.205
10.8794
10.6507
10.3363
10.1
9.79556
9.55292
9.25734
9.00969
8.72181
8.47037
8.18917
7.93508
7.6596
7.40388
7.13333
6.87687
6.61055
6.35414
6.09152
5.83582
5.57654
5.32213
5.06598
4.81337
4.56027
4.30988
4.05984
3.81197
3.56496
3.31969
3.07554
2.83274
2.59103
2.35036
2.11037
1.87113
1.63229
1.39149
1.14352
0.900181
0.685267
0.495157
0.325937
0.221434
0
0
0
0
0
0
0
0
0
0
0
0
0
0
0
0
0
0
0
0
0
0
0
0
0
0
0
0
0
0
0
0
0
0
0
0
0
0
0
0
0
)
;

boundaryField
{
    inlet
    {
        type            cyclic;
    }
    outlet
    {
        type            cyclic;
    }
    top
    {
        type            calculated;
        value           uniform 0;
    }
    bottom
    {
        type            calculated;
        value           uniform 20.9682;
    }
    frontAndBackPlanes
    {
        type            empty;
    }
}


// ************************************************************************* //
