/*--------------------------------*- C++ -*----------------------------------*\
| =========                 |                                                 |
| \\      /  F ield         | OpenFOAM: The Open Source CFD Toolbox           |
|  \\    /   O peration     | Version:  2206                                  |
|   \\  /    A nd           | Website:  www.openfoam.com                      |
|    \\/     M anipulation  |                                                 |
\*---------------------------------------------------------------------------*/
FoamFile
{
    version     2.0;
    format      ascii;
    arch        "LSB;label=32;scalar=64";
    class       surfaceScalarField;
    location    "1180";
    object      phi.b;
}
// * * * * * * * * * * * * * * * * * * * * * * * * * * * * * * * * * * * * * //

dimensions      [0 3 -1 0 0 0 0];

oriented        oriented;

internalField   nonuniform List<scalar> 
119
(
1.52246e-15
3.08334e-15
4.64528e-15
6.24906e-15
7.85717e-15
9.50641e-15
1.11632e-14
1.28602e-14
1.45683e-14
1.63153e-14
1.80776e-14
1.98779e-14
2.16982e-14
2.35552e-14
2.54366e-14
2.73533e-14
2.92992e-14
3.12797e-14
3.32952e-14
3.53442e-14
3.74333e-14
3.9555e-14
4.17226e-14
4.39225e-14
4.61738e-14
4.84572e-14
5.07974e-14
5.31703e-14
5.56059e-14
5.80757e-14
6.06133e-14
6.31868e-14
6.58342e-14
6.8521e-14
7.12876e-14
7.4098e-14
7.69948e-14
7.99416e-14
8.29813e-14
8.60783e-14
8.92756e-14
9.25397e-14
9.59117e-14
9.93602e-14
1.02925e-13
1.06578e-13
1.10354e-13
1.14232e-13
1.18242e-13
1.22368e-13
1.2664e-13
1.31046e-13
1.35615e-13
1.40344e-13
1.45262e-13
1.50376e-13
1.55717e-13
1.613e-13
1.67161e-13
1.73322e-13
1.79817e-13
1.86672e-13
1.93918e-13
2.01578e-13
2.09679e-13
2.18249e-13
2.27332e-13
2.36994e-13
2.4737e-13
2.58692e-13
2.71328e-13
2.8593e-13
3.03837e-13
3.26752e-13
3.54184e-13
3.88525e-13
4.37496e-13
4.74913e-13
4.81334e-13
1.54145e-12
1.98621e-12
2.16338e-12
2.2497e-12
2.28823e-12
2.30623e-12
2.31502e-12
2.31925e-12
2.32037e-12
2.32276e-12
2.32846e-12
2.34466e-12
2.57947e-12
9.57608e-12
7.70715e-16
-1.02249e-16
2.80818e-17
2.06268e-18
2.5052e-20
-1.66397e-19
-6.15886e-20
-1.35928e-19
5.57168e-19
2.51904e-19
1.6545e-19
9.30469e-20
-2.15918e-19
-2.06509e-19
-5.08293e-22
-1.28144e-20
2.16079e-19
6.82733e-19
3.07029e-19
3.40873e-19
-3.19722e-19
-3.1112e-19
-3.78783e-19
4.238e-20
2.74532e-19
3.5298e-19
)
;

boundaryField
{
    inlet
    {
        type            cyclic;
        value           nonuniform List<scalar> 
120
(
-2.24182e-27
-6.72991e-27
-1.12322e-26
-1.57439e-26
-2.02836e-26
-2.48547e-26
-2.94844e-26
-3.4118e-26
-3.87976e-26
-4.35925e-26
-4.84279e-26
-5.33009e-26
-5.83335e-26
-6.34197e-26
-6.8605e-26
-7.3898e-26
-7.93074e-26
-8.48418e-26
-9.05105e-26
-9.63227e-26
-1.02288e-25
-1.08416e-25
-1.14716e-25
-1.2086e-25
-1.27889e-25
-1.34785e-25
-1.42093e-25
-1.49228e-25
-1.56802e-25
-1.65082e-25
-1.73181e-25
-1.8105e-25
-1.89683e-25
-1.98624e-25
-2.07876e-25
-2.16891e-25
-2.26584e-25
-2.37916e-25
-2.47106e-25
-2.59959e-25
-2.69141e-25
-2.82214e-25
-2.93552e-25
-3.06041e-25
-3.18184e-25
-3.34089e-25
-3.46271e-25
-3.61479e-25
-3.73514e-25
-3.907e-25
-4.06541e-25
-4.22879e-25
-4.39727e-25
-4.57083e-25
-4.73816e-25
-4.93381e-25
-5.12326e-25
-5.31795e-25
-5.54398e-25
-5.72305e-25
-5.93335e-25
-6.14903e-25
-6.37003e-25
-6.59659e-25
-6.86133e-25
-7.03034e-25
-7.30707e-25
-7.55441e-25
-7.80549e-25
-8.05992e-25
-8.36003e-25
-8.57892e-25
-8.85142e-25
-9.14519e-25
-9.47186e-25
-9.83924e-25
-1.03627e-24
-1.11563e-24
-1.15333e-24
-1.2662e-24
-1.83459e-23
-2.241e-23
-2.50045e-23
-2.8248e-23
-3.29699e-23
-4.01181e-23
-3.2464e-23
-2.70605e-23
-2.29953e-23
-1.98426e-23
-1.73764e-23
-1.55698e-23
-1.4421e-23
-1.41365e-23
-1.34895e-23
-1.28543e-23
-1.22339e-23
-1.16266e-23
-1.10312e-23
-1.04467e-23
-9.87222e-24
-9.30719e-24
-8.75105e-24
-8.20334e-24
-7.66363e-24
-7.13151e-24
-6.60659e-24
-6.08848e-24
-5.57676e-24
-5.071e-24
-4.57078e-24
-4.07563e-24
-3.58507e-24
-3.09861e-24
-2.61574e-24
-2.13592e-24
-1.65863e-24
-1.18331e-24
-7.09402e-25
-2.36345e-25
)
;
    }
    outlet
    {
        type            cyclic;
        value           nonuniform List<scalar> 
120
(
2.24182e-27
6.72991e-27
1.12322e-26
1.57439e-26
2.02836e-26
2.48547e-26
2.94844e-26
3.4118e-26
3.87976e-26
4.35925e-26
4.84279e-26
5.33009e-26
5.83335e-26
6.34197e-26
6.8605e-26
7.3898e-26
7.93074e-26
8.48418e-26
9.05105e-26
9.63227e-26
1.02288e-25
1.08416e-25
1.14716e-25
1.2086e-25
1.27889e-25
1.34785e-25
1.42093e-25
1.49228e-25
1.56802e-25
1.65082e-25
1.73181e-25
1.8105e-25
1.89683e-25
1.98624e-25
2.07876e-25
2.16891e-25
2.26584e-25
2.37916e-25
2.47106e-25
2.59959e-25
2.69141e-25
2.82214e-25
2.93552e-25
3.06041e-25
3.18184e-25
3.34089e-25
3.46271e-25
3.61479e-25
3.73514e-25
3.907e-25
4.06541e-25
4.22879e-25
4.39727e-25
4.57083e-25
4.73816e-25
4.93381e-25
5.12326e-25
5.31795e-25
5.54398e-25
5.72305e-25
5.93335e-25
6.14903e-25
6.37003e-25
6.59659e-25
6.86133e-25
7.03034e-25
7.30707e-25
7.55441e-25
7.80549e-25
8.05992e-25
8.36003e-25
8.57892e-25
8.85142e-25
9.14519e-25
9.47186e-25
9.83924e-25
1.03627e-24
1.11563e-24
1.15333e-24
1.2662e-24
1.83459e-23
2.241e-23
2.50045e-23
2.8248e-23
3.29699e-23
4.01181e-23
3.2464e-23
2.70605e-23
2.29953e-23
1.98426e-23
1.73764e-23
1.55698e-23
1.4421e-23
1.41365e-23
1.34895e-23
1.28543e-23
1.22339e-23
1.16266e-23
1.10312e-23
1.04467e-23
9.87222e-24
9.30719e-24
8.75105e-24
8.20334e-24
7.66363e-24
7.13151e-24
6.60659e-24
6.08848e-24
5.57676e-24
5.071e-24
4.57078e-24
4.07563e-24
3.58507e-24
3.09861e-24
2.61574e-24
2.13592e-24
1.65863e-24
1.18331e-24
7.09402e-25
2.36345e-25
)
;
    }
    top
    {
        type            fixedValue;
        value           uniform 0;
    }
    bottom
    {
        type            fixedValue;
        value           uniform 0;
    }
    frontAndBackPlanes
    {
        type            empty;
        value           nonuniform List<scalar> 0();
    }
}


// ************************************************************************* //
