/*--------------------------------*- C++ -*----------------------------------*\
| =========                 |                                                 |
| \\      /  F ield         | OpenFOAM: The Open Source CFD Toolbox           |
|  \\    /   O peration     | Version:  2206                                  |
|   \\  /    A nd           | Website:  www.openfoam.com                      |
|    \\/     M anipulation  |                                                 |
\*---------------------------------------------------------------------------*/
FoamFile
{
    version     2.0;
    format      ascii;
    arch        "LSB;label=32;scalar=64";
    class       surfaceScalarField;
    location    "1180";
    object      phi.a;
}
// * * * * * * * * * * * * * * * * * * * * * * * * * * * * * * * * * * * * * //

dimensions      [0 3 -1 0 0 0 0];

oriented        oriented;

internalField   nonuniform List<scalar> 
119
(
-1.01877e-15
-2.0637e-15
-3.10987e-15
-4.18459e-15
-5.26274e-15
-6.36902e-15
-7.48094e-15
-8.62042e-15
-9.76802e-15
-1.09425e-14
-1.21279e-14
-1.33395e-14
-1.4565e-14
-1.5816e-14
-1.70841e-14
-1.8377e-14
-1.96905e-14
-2.10281e-14
-2.23899e-14
-2.37753e-14
-2.51887e-14
-2.66252e-14
-2.80936e-14
-2.9585e-14
-3.1112e-14
-3.26622e-14
-3.42518e-14
-3.58652e-14
-3.75219e-14
-3.92033e-14
-4.0932e-14
-4.2687e-14
-4.44934e-14
-4.63285e-14
-4.82192e-14
-5.01419e-14
-5.21249e-14
-5.41443e-14
-5.62288e-14
-5.83552e-14
-6.0552e-14
-6.27972e-14
-6.51184e-14
-6.74952e-14
-6.9954e-14
-7.24767e-14
-7.50875e-14
-7.77713e-14
-8.05505e-14
-8.34133e-14
-8.63807e-14
-8.94454e-14
-9.26278e-14
-9.59261e-14
-9.93614e-14
-1.02939e-13
-1.0668e-13
-1.10598e-13
-1.14717e-13
-1.19054e-13
-1.23635e-13
-1.28478e-13
-1.33607e-13
-1.39042e-13
-1.44804e-13
-1.50917e-13
-1.57415e-13
-1.64351e-13
-1.71827e-13
-1.80015e-13
-1.89188e-13
-1.99826e-13
-2.12916e-13
-2.2972e-13
-2.49936e-13
-2.75326e-13
-3.11587e-13
-3.39986e-13
-3.60053e-13
-1.27649e-12
-1.80842e-12
-2.07092e-12
-2.20328e-12
-2.26557e-12
-2.29516e-12
-2.30965e-12
-2.31682e-12
-2.31833e-12
-2.31812e-12
-2.32981e-12
-2.45576e-12
-3.00872e-12
-3.29951e-11
-3.36625e-13
1.75104e-11
-6.10657e-11
-7.71475e-11
-7.67301e-11
-7.74657e-11
-7.90197e-11
-8.04992e-11
-8.1307e-11
-8.16487e-11
-8.18164e-11
-8.19189e-11
-8.19863e-11
-8.20276e-11
-8.20492e-11
-8.20583e-11
-8.20614e-11
-8.20623e-11
-8.20625e-11
-8.20626e-11
-8.20626e-11
-8.20625e-11
-8.2062e-11
-8.20594e-11
-8.20314e-11
-8.14024e-11
)
;

boundaryField
{
    inlet
    {
        type            cyclic;
        value           nonuniform List<scalar> 
120
(
-2.24182e-27
-6.7299e-27
-1.12283e-26
-1.57439e-26
-2.02836e-26
-2.48546e-26
-2.94638e-26
-3.4118e-26
-3.88249e-26
-4.35927e-26
-4.84281e-26
-5.33388e-26
-5.83337e-26
-6.34197e-26
-6.8605e-26
-7.3898e-26
-7.93074e-26
-8.48418e-26
-9.05105e-26
-9.63227e-26
-1.02288e-25
-1.08416e-25
-1.14718e-25
-1.21202e-25
-1.27891e-25
-1.34784e-25
-1.41894e-25
-1.49227e-25
-1.568e-25
-1.64625e-25
-1.72704e-25
-1.81048e-25
-1.89683e-25
-1.98624e-25
-2.07878e-25
-2.17478e-25
-2.27189e-25
-2.37293e-25
-2.4775e-25
-2.5861e-25
-2.69834e-25
-2.81489e-25
-2.93548e-25
-3.06044e-25
-3.18988e-25
-3.32411e-25
-3.4626e-25
-3.60586e-25
-3.75376e-25
-3.90708e-25
-4.06541e-25
-4.22879e-25
-4.39727e-25
-4.57088e-25
-4.74964e-25
-4.93387e-25
-5.12326e-25
-5.31783e-25
-5.51753e-25
-5.72293e-25
-5.93335e-25
-6.14903e-25
-6.37003e-25
-6.59644e-25
-6.8283e-25
-7.06474e-25
-7.30723e-25
-7.55441e-25
-7.80549e-25
-8.05971e-25
-8.31709e-25
-8.57872e-25
-8.85142e-25
-9.14519e-25
-9.47186e-25
-9.83862e-25
-1.03612e-24
-1.11574e-24
-1.15281e-24
-1.16332e-24
-1.83464e-23
-2.24101e-23
-2.50045e-23
-2.82481e-23
-3.29705e-23
-4.02012e-23
-3.24646e-23
-2.7061e-23
-2.29954e-23
-1.98426e-23
-1.73763e-23
-1.55698e-23
-1.44209e-23
-1.41371e-23
-1.34073e-23
-1.19661e-23
-9.45052e-24
-9.04384e-24
-8.27789e-24
-6.52341e-24
-3.95745e-24
-2.14503e-24
-1.30528e-24
-8.78314e-25
-6.00107e-25
-3.95571e-25
-2.50754e-25
-1.62925e-25
-1.2035e-25
-1.04307e-25
-9.94191e-26
-9.79472e-26
-9.73619e-26
-9.70638e-26
-9.68966e-26
-9.68108e-26
-9.67967e-26
-9.69568e-26
-9.7891e-26
-1.00742e-25
)
;
    }
    outlet
    {
        type            cyclic;
        value           nonuniform List<scalar> 
120
(
2.24182e-27
6.7299e-27
1.12283e-26
1.57439e-26
2.02836e-26
2.48546e-26
2.94638e-26
3.4118e-26
3.88249e-26
4.35927e-26
4.84281e-26
5.33388e-26
5.83337e-26
6.34197e-26
6.8605e-26
7.3898e-26
7.93074e-26
8.48418e-26
9.05105e-26
9.63227e-26
1.02288e-25
1.08416e-25
1.14718e-25
1.21202e-25
1.27891e-25
1.34784e-25
1.41894e-25
1.49227e-25
1.568e-25
1.64625e-25
1.72704e-25
1.81048e-25
1.89683e-25
1.98624e-25
2.07878e-25
2.17478e-25
2.27189e-25
2.37293e-25
2.4775e-25
2.5861e-25
2.69834e-25
2.81489e-25
2.93548e-25
3.06044e-25
3.18988e-25
3.32411e-25
3.4626e-25
3.60586e-25
3.75376e-25
3.90708e-25
4.06541e-25
4.22879e-25
4.39727e-25
4.57088e-25
4.74964e-25
4.93387e-25
5.12326e-25
5.31783e-25
5.51753e-25
5.72293e-25
5.93335e-25
6.14903e-25
6.37003e-25
6.59644e-25
6.8283e-25
7.06474e-25
7.30723e-25
7.55441e-25
7.80549e-25
8.05971e-25
8.31709e-25
8.57872e-25
8.85142e-25
9.14519e-25
9.47186e-25
9.83862e-25
1.03612e-24
1.11574e-24
1.15281e-24
1.16332e-24
1.83464e-23
2.24101e-23
2.50045e-23
2.82481e-23
3.29705e-23
4.02012e-23
3.24646e-23
2.7061e-23
2.29954e-23
1.98426e-23
1.73763e-23
1.55698e-23
1.44209e-23
1.41371e-23
1.34073e-23
1.19661e-23
9.45052e-24
9.04384e-24
8.27789e-24
6.52341e-24
3.95745e-24
2.14503e-24
1.30528e-24
8.78314e-25
6.00107e-25
3.95571e-25
2.50754e-25
1.62925e-25
1.2035e-25
1.04307e-25
9.94191e-26
9.79472e-26
9.73619e-26
9.70638e-26
9.68966e-26
9.68108e-26
9.67967e-26
9.69568e-26
9.7891e-26
1.00742e-25
)
;
    }
    top
    {
        type            fixedValue;
        value           uniform 0;
    }
    bottom
    {
        type            fixedValue;
        value           uniform 0;
    }
    frontAndBackPlanes
    {
        type            empty;
        value           nonuniform List<scalar> 0();
    }
}


// ************************************************************************* //
