/*--------------------------------*- C++ -*----------------------------------*\
| =========                 |                                                 |
| \\      /  F ield         | OpenFOAM: The Open Source CFD Toolbox           |
|  \\    /   O peration     | Version:  2206                                  |
|   \\  /    A nd           | Website:  www.openfoam.com                      |
|    \\/     M anipulation  |                                                 |
\*---------------------------------------------------------------------------*/
FoamFile
{
    version     2.0;
    format      ascii;
    arch        "LSB;label=32;scalar=64";
    class       volVectorField;
    location    "1180";
    object      U.a;
}
// * * * * * * * * * * * * * * * * * * * * * * * * * * * * * * * * * * * * * //

dimensions      [0 1 -1 0 0 0 0];

internalField   nonuniform List<vector> 
120
(
(7.47273e-21 1.42421e-08 0)
(2.2433e-20 -3.95279e-09 0)
(3.74277e-20 -7.51218e-09 0)
(5.24795e-20 -9.76426e-09 0)
(6.7612e-20 -1.34834e-08 0)
(8.28486e-20 -1.57533e-08 0)
(9.82128e-20 -1.963e-08 0)
(1.13727e-19 -2.193e-08 0)
(1.29416e-19 -2.5961e-08 0)
(1.45309e-19 -2.83051e-08 0)
(1.61427e-19 -3.24866e-08 0)
(1.77796e-19 -3.48902e-08 0)
(1.94446e-19 -3.92181e-08 0)
(2.11399e-19 -4.16981e-08 0)
(2.28683e-19 -4.61682e-08 0)
(2.46327e-19 -4.8743e-08 0)
(2.64358e-19 -5.33511e-08 0)
(2.82806e-19 -5.604e-08 0)
(3.01702e-19 -6.07822e-08 0)
(3.21076e-19 -6.36057e-08 0)
(3.4096e-19 -6.84787e-08 0)
(3.61387e-19 -7.14579e-08 0)
(3.82392e-19 -7.64594e-08 0)
(4.04008e-19 -7.96156e-08 0)
(4.26302e-19 -8.47444e-08 0)
(4.49281e-19 -8.80995e-08 0)
(4.72981e-19 -9.3356e-08 0)
(4.97424e-19 -9.69315e-08 0)
(5.22667e-19 -1.02318e-07 0)
(5.48752e-19 -1.06136e-07 0)
(5.75679e-19 -1.11659e-07 0)
(6.03492e-19 -1.15741e-07 0)
(6.32277e-19 -1.21408e-07 0)
(6.62079e-19 -1.25777e-07 0)
(6.92928e-19 -1.31602e-07 0)
(7.24926e-19 -1.36282e-07 0)
(7.57296e-19 -1.42283e-07 0)
(7.90977e-19 -1.47299e-07 0)
(8.25833e-19 -1.53501e-07 0)
(8.62034e-19 -1.5888e-07 0)
(8.99447e-19 -1.65314e-07 0)
(9.38296e-19 -1.71086e-07 0)
(9.78494e-19 -1.77786e-07 0)
(1.02015e-18 -1.83982e-07 0)
(1.06329e-18 -1.9099e-07 0)
(1.10804e-18 -1.97642e-07 0)
(1.1542e-18 -2.05004e-07 0)
(1.20195e-18 -2.12148e-07 0)
(1.25125e-18 -2.19913e-07 0)
(1.30236e-18 -2.27588e-07 0)
(1.35514e-18 -2.35817e-07 0)
(1.4096e-18 -2.44074e-07 0)
(1.46576e-18 -2.52843e-07 0)
(1.52363e-18 -2.61754e-07 0)
(1.58321e-18 -2.71167e-07 0)
(1.64462e-18 -2.80839e-07 0)
(1.70775e-18 -2.91039e-07 0)
(1.77261e-18 -3.01626e-07 0)
(1.83918e-18 -3.12805e-07 0)
(1.90764e-18 -3.24509e-07 0)
(1.97778e-18 -3.36899e-07 0)
(2.04968e-18 -3.49955e-07 0)
(2.12334e-18 -3.63804e-07 0)
(2.19881e-18 -3.78452e-07 0)
(2.2761e-18 -3.93997e-07 0)
(2.35491e-18 -4.10465e-07 0)
(2.43574e-18 -4.27954e-07 0)
(2.51814e-18 -4.46564e-07 0)
(2.60183e-18 -4.6649e-07 0)
(2.68657e-18 -4.88094e-07 0)
(2.77236e-18 -5.11974e-07 0)
(2.85957e-18 -5.39045e-07 0)
(2.95047e-18 -5.71053e-07 0)
(3.0484e-18 -6.11745e-07 0)
(3.15729e-18 -6.64415e-07 0)
(3.27954e-18 -7.23981e-07 0)
(3.45373e-18 -8.0491e-07 0)
(3.71912e-18 -9.26458e-07 0)
(3.84271e-18 -9.64191e-07 0)
(3.87773e-18 -9.62644e-07 0)
(6.11545e-17 -2.05321e-05 0)
(7.47002e-17 -3.26609e-06 0)
(8.33484e-17 -4.68807e-06 0)
(9.41605e-17 -5.79316e-06 0)
(1.09902e-16 -6.15927e-06 0)
(1.34004e-16 -6.30147e-06 0)
(1.08215e-16 -6.34944e-06 0)
(9.02033e-17 -6.48908e-06 0)
(7.66512e-17 -7.18606e-06 0)
(6.61419e-17 -5.40547e-06 0)
(5.79211e-17 8.05819e-06 0)
(5.18995e-17 -7.45983e-06 0)
(4.80697e-17 -0.000358856 0)
(4.71237e-17 -0.000197933 0)
(4.4691e-17 0.000255534 0)
(3.98871e-17 -0.000122498 0)
(3.15017e-17 -0.000215823 0)
(3.01461e-17 -0.000212897 0)
(2.7593e-17 -0.000213385 0)
(2.17447e-17 -0.000216978 0)
(1.31915e-17 -0.00022202 0)
(7.1501e-18 -0.000225198 0)
(4.35093e-18 -0.000226507 0)
(2.92771e-18 -0.000227097 0)
(2.00036e-18 -0.000227439 0)
(1.31857e-18 -0.000227666 0)
(8.35848e-19 -0.000227813 0)
(5.43082e-19 -0.000227896 0)
(4.01168e-19 -0.000227933 0)
(3.47691e-19 -0.000227946 0)
(3.31397e-19 -0.00022795 0)
(3.26491e-19 -0.000227951 0)
(3.2454e-19 -0.000227952 0)
(3.23546e-19 -0.000227952 0)
(3.22989e-19 -0.000227952 0)
(3.22703e-19 -0.000227951 0)
(3.22656e-19 -0.000227949 0)
(3.23189e-19 -0.000227936 0)
(3.26303e-19 -0.000227793 0)
(3.35807e-19 -0.000224442 0)
)
;

boundaryField
{
    inlet
    {
        type            cyclic;
    }
    outlet
    {
        type            cyclic;
    }
    top
    {
        type            fixedValue;
        value           uniform (0 0 0);
    }
    bottom
    {
        type            fixedValue;
        value           uniform (0 0 0);
    }
    frontAndBackPlanes
    {
        type            empty;
    }
}


// ************************************************************************* //
