/*--------------------------------*- C++ -*----------------------------------*\
| =========                 |                                                 |
| \\      /  F ield         | OpenFOAM: The Open Source CFD Toolbox           |
|  \\    /   O peration     | Version:  2206                                  |
|   \\  /    A nd           | Website:  www.openfoam.com                      |
|    \\/     M anipulation  |                                                 |
\*---------------------------------------------------------------------------*/
FoamFile
{
    version     2.0;
    format      ascii;
    arch        "LSB;label=32;scalar=64";
    class       volVectorField;
    location    "1180";
    object      U.b;
}
// * * * * * * * * * * * * * * * * * * * * * * * * * * * * * * * * * * * * * //

dimensions      [0 1 -1 0 0 0 0];

internalField   nonuniform List<vector> 
120
(
(7.47274e-21 1.7498e-08 0)
(2.2433e-20 6.74129e-09 0)
(3.74405e-20 1.03927e-08 0)
(5.24796e-20 1.54973e-08 0)
(6.7612e-20 1.92233e-08 0)
(8.28489e-20 2.45229e-08 0)
(9.82815e-20 2.83029e-08 0)
(1.13727e-19 3.38079e-08 0)
(1.29325e-19 3.76582e-08 0)
(1.45308e-19 4.33666e-08 0)
(1.61426e-19 4.7304e-08 0)
(1.7767e-19 5.32142e-08 0)
(1.94445e-19 5.72591e-08 0)
(2.11399e-19 6.33701e-08 0)
(2.28683e-19 6.75432e-08 0)
(2.46327e-19 7.38514e-08 0)
(2.64358e-19 7.81736e-08 0)
(2.82806e-19 8.46772e-08 0)
(3.01702e-19 8.91741e-08 0)
(3.21076e-19 9.58735e-08 0)
(3.4096e-19 1.0057e-07 0)
(3.61387e-19 1.07464e-07 0)
(3.82387e-19 1.12386e-07 0)
(4.02867e-19 1.19476e-07 0)
(4.26297e-19 1.24651e-07 0)
(4.49284e-19 1.31939e-07 0)
(4.73642e-19 1.37393e-07 0)
(4.97427e-19 1.44884e-07 0)
(5.22674e-19 1.50645e-07 0)
(5.50275e-19 1.58348e-07 0)
(5.77269e-19 1.64445e-07 0)
(6.03499e-19 1.7237e-07 0)
(6.32277e-19 1.78832e-07 0)
(6.62078e-19 1.86995e-07 0)
(6.92919e-19 1.93854e-07 0)
(7.22971e-19 2.02279e-07 0)
(7.5528e-19 2.09568e-07 0)
(7.93054e-19 2.18284e-07 0)
(8.23687e-19 2.26041e-07 0)
(8.6653e-19 2.35085e-07 0)
(8.97136e-19 2.43348e-07 0)
(9.40715e-19 2.52766e-07 0)
(9.78505e-19 2.6158e-07 0)
(1.02014e-18 2.71422e-07 0)
(1.06061e-18 2.80832e-07 0)
(1.11363e-18 2.91156e-07 0)
(1.15424e-18 3.01211e-07 0)
(1.20493e-18 3.12079e-07 0)
(1.24505e-18 3.22829e-07 0)
(1.30233e-18 3.34313e-07 0)
(1.35514e-18 3.45822e-07 0)
(1.4096e-18 3.58013e-07 0)
(1.46576e-18 3.70367e-07 0)
(1.52361e-18 3.83383e-07 0)
(1.57939e-18 3.96706e-07 0)
(1.6446e-18 4.10715e-07 0)
(1.70775e-18 4.25187e-07 0)
(1.77265e-18 4.40416e-07 0)
(1.84799e-18 4.56283e-07 0)
(1.90768e-18 4.7302e-07 0)
(1.97778e-18 4.90583e-07 0)
(2.04968e-18 5.09154e-07 0)
(2.12334e-18 5.28728e-07 0)
(2.19886e-18 5.49447e-07 0)
(2.28711e-18 5.7133e-07 0)
(2.34345e-18 5.94495e-07 0)
(2.43569e-18 6.19016e-07 0)
(2.51814e-18 6.45074e-07 0)
(2.60183e-18 6.7296e-07 0)
(2.68664e-18 7.03196e-07 0)
(2.78668e-18 7.36625e-07 0)
(2.85964e-18 7.74758e-07 0)
(2.95047e-18 8.20581e-07 0)
(3.0484e-18 8.77891e-07 0)
(3.15729e-18 9.46632e-07 0)
(3.27975e-18 1.03577e-06 0)
(3.45425e-18 1.15503e-06 0)
(3.71876e-18 1.24535e-06 0)
(3.84443e-18 1.22549e-06 0)
(4.22068e-18 3.58218e-06 0)
(6.11529e-17 -1.03515e-05 0)
(7.47e-17 8.04161e-06 0)
(8.33484e-17 7.4512e-06 0)
(9.41602e-17 6.75489e-06 0)
(1.099e-16 6.57459e-06 0)
(1.33727e-16 6.52101e-06 0)
(1.08213e-16 6.51675e-06 0)
(9.02018e-17 6.39984e-06 0)
(7.66511e-17 5.7081e-06 0)
(6.61419e-17 7.46683e-06 0)
(5.79212e-17 2.07954e-05 0)
(5.18995e-17 6.64033e-06 0)
(4.80699e-17 -0.000334733 0)
(4.71217e-17 1.77919e-05 0)
(4.4965e-17 4.65307e-05 0)
(4.28477e-17 3.25186e-06 0)
(4.07797e-17 -3.22683e-06 0)
(3.87555e-17 -6.82592e-07 0)
(3.67708e-17 1.53429e-07 0)
(3.48223e-17 7.01788e-08 0)
(3.29074e-17 -1.84065e-09 0)
(3.1024e-17 -5.35332e-09 0)
(2.91702e-17 -5.63174e-10 0)
(2.73445e-17 3.27924e-10 0)
(2.55454e-17 8.76153e-11 0)
(2.37717e-17 -1.3662e-11 0)
(2.2022e-17 -9.03169e-12 0)
(2.02949e-17 -3.87205e-13 0)
(1.85892e-17 5.44135e-13 0)
(1.69033e-17 2.36718e-13 0)
(1.52359e-17 1.03807e-12 0)
(1.35854e-17 1.33291e-12 0)
(1.19502e-17 9.8247e-13 0)
(1.03287e-17 1.83732e-13 0)
(8.71913e-18 -7.85749e-13 0)
(7.11975e-18 -9.05292e-13 0)
(5.52877e-18 -4.68619e-13 0)
(3.94437e-18 2.12307e-13 0)
(2.36467e-18 2.73952e-13 0)
(7.87817e-19 -3.22761e-13 0)
)
;

boundaryField
{
    inlet
    {
        type            cyclic;
    }
    outlet
    {
        type            cyclic;
    }
    top
    {
        type            fixedValue;
        value           uniform (0 0 0);
    }
    bottom
    {
        type            fixedValue;
        value           uniform (0 0 0);
    }
    frontAndBackPlanes
    {
        type            empty;
    }
}


// ************************************************************************* //
