/*--------------------------------*- C++ -*----------------------------------*\
| =========                 |                                                 |
| \\      /  F ield         | OpenFOAM: The Open Source CFD Toolbox           |
|  \\    /   O peration     | Version:  2206                                  |
|   \\  /    A nd           | Website:  www.openfoam.com                      |
|    \\/     M anipulation  |                                                 |
\*---------------------------------------------------------------------------*/
FoamFile
{
    version     2.0;
    format      ascii;
    arch        "LSB;label=32;scalar=64";
    class       volScalarField;
    location    "1460";
    object      pff;
}
// * * * * * * * * * * * * * * * * * * * * * * * * * * * * * * * * * * * * * //

dimensions      [1 -1 -2 0 0 0 0];

internalField   nonuniform List<scalar> 
120
(
25.644
25.1095
25.1123
24.5325
24.5195
23.9508
23.9271
23.3703
23.3351
22.7908
22.7436
22.2122
22.1526
21.6347
21.5622
21.0582
20.9725
20.4826
20.3836
19.9078
19.7954
19.334
19.2081
18.761
18.6219
18.1888
18.0367
17.6174
17.4526
17.0467
16.8697
16.4769
16.2881
15.9077
15.7079
15.3393
15.1291
14.7716
14.5518
14.2046
13.976
13.6384
13.4017
13.0729
12.8291
12.5081
12.258
11.9442
11.6885
11.381
11.1206
10.8186
10.5542
10.257
9.98935
9.69632
9.42601
9.13647
8.86414
8.57752
8.30368
8.0195
7.7446
7.46244
7.18685
6.90635
6.63041
6.35126
6.07523
5.7972
5.52127
5.24418
4.96854
4.69225
4.41701
4.14146
3.86671
3.59192
3.31759
3.04384
2.76953
2.49749
2.2224
1.95293
1.67662
1.40846
1.13589
0.856079
0.612845
0.242134
0
0
0
0
0
0
0
0
0
0
0
0
0
0
0
0
0
0
0
0
0
0
0
0
0
0
0
0
0
0
)
;

boundaryField
{
    inlet
    {
        type            cyclic;
    }
    outlet
    {
        type            cyclic;
    }
    top
    {
        type            calculated;
        value           uniform 0;
    }
    bottom
    {
        type            calculated;
        value           uniform 25.644;
    }
    frontAndBackPlanes
    {
        type            empty;
    }
}


// ************************************************************************* //
