/*--------------------------------*- C++ -*----------------------------------*\
| =========                 |                                                 |
| \\      /  F ield         | OpenFOAM: The Open Source CFD Toolbox           |
|  \\    /   O peration     | Version:  2206                                  |
|   \\  /    A nd           | Website:  www.openfoam.com                      |
|    \\/     M anipulation  |                                                 |
\*---------------------------------------------------------------------------*/
FoamFile
{
    version     2.0;
    format      ascii;
    arch        "LSB;label=32;scalar=64";
    class       surfaceScalarField;
    location    "1460";
    object      phi.b;
}
// * * * * * * * * * * * * * * * * * * * * * * * * * * * * * * * * * * * * * //

dimensions      [0 3 -1 0 0 0 0];

oriented        oriented;

internalField   nonuniform List<scalar> 
119
(
8.16158e-16
1.6502e-15
2.48286e-15
3.33555e-15
4.18714e-15
5.0585e-15
5.92941e-15
6.81938e-15
7.70998e-15
8.61862e-15
9.52917e-15
1.04564e-14
1.1387e-14
1.23327e-14
1.32833e-14
1.42474e-14
1.5218e-14
1.62004e-14
1.71907e-14
1.8191e-14
1.92008e-14
2.02186e-14
2.12474e-14
2.22821e-14
2.33292e-14
2.43802e-14
2.54449e-14
2.65113e-14
2.75925e-14
2.86734e-14
2.97698e-14
3.0864e-14
3.19744e-14
3.30807e-14
3.42036e-14
3.53207e-14
3.64546e-14
3.75812e-14
3.87245e-14
3.98592e-14
4.10104e-14
4.2152e-14
4.33098e-14
4.44571e-14
4.56201e-14
4.67725e-14
4.79399e-14
4.90965e-14
5.02676e-14
5.14282e-14
5.26024e-14
5.37668e-14
5.49441e-14
5.61123e-14
5.72925e-14
5.84646e-14
5.96478e-14
6.08237e-14
6.20094e-14
6.31886e-14
6.4376e-14
6.55575e-14
6.6745e-14
6.79265e-14
6.91116e-14
7.02899e-14
7.1469e-14
7.26401e-14
7.38089e-14
7.49683e-14
7.61227e-14
7.72666e-14
7.84036e-14
7.95304e-14
8.0649e-14
8.17593e-14
8.28603e-14
8.39572e-14
8.50407e-14
8.61257e-14
8.71872e-14
8.82453e-14
8.92655e-14
9.02181e-14
9.11434e-14
9.17324e-14
9.2439e-14
9.19757e-14
9.27076e-14
1.03298e-13
8.42659e-12
6.1141e-14
4.54383e-15
9.08257e-16
5.32659e-17
7.7364e-20
1.12899e-19
5.09602e-20
5.29865e-20
1.07827e-19
4.01017e-20
-9.5217e-20
-9.5608e-20
-4.15263e-20
-4.15238e-20
4.92626e-20
1.3542e-19
7.85768e-21
-4.97199e-20
-1.28578e-20
-1.23739e-19
-4.64807e-20
2.34816e-20
-7.08345e-20
1.12091e-19
-5.7128e-20
6.92093e-20
-9.17009e-20
-3.63449e-20
)
;

boundaryField
{
    inlet
    {
        type            cyclic;
        value           nonuniform List<scalar> 
120
(
-3.28135e-27
-9.85001e-27
-1.64346e-26
-2.30382e-26
-2.96762e-26
-3.6356e-26
-4.30978e-26
-4.98778e-26
-5.67242e-26
-6.36793e-26
-7.07088e-26
-7.7817e-26
-8.50737e-26
-9.24285e-26
-9.99111e-26
-1.07531e-25
-1.153e-25
-1.23226e-25
-1.31321e-25
-1.39594e-25
-1.48057e-25
-1.56721e-25
-1.65595e-25
-1.74519e-25
-1.84028e-25
-1.93611e-25
-2.03548e-25
-2.13554e-25
-2.2394e-25
-2.34844e-25
-2.45831e-25
-2.56888e-25
-2.68509e-25
-2.80473e-25
-2.9279e-25
-3.05201e-25
-3.17955e-25
-3.31707e-25
-3.44678e-25
-3.59602e-25
-3.73065e-25
-3.88582e-25
-4.03563e-25
-4.19336e-25
-4.35231e-25
-4.53072e-25
-4.6955e-25
-4.87637e-25
-5.04648e-25
-5.24151e-25
-5.43361e-25
-5.6306e-25
-5.83244e-25
-6.03899e-25
-6.24563e-25
-6.46588e-25
-6.6858e-25
-6.90967e-25
-7.14671e-25
-7.36941e-25
-7.60447e-25
-7.84197e-25
-8.08135e-25
-8.32213e-25
-8.57452e-25
-8.79364e-25
-9.0457e-25
-9.28533e-25
-9.52276e-25
-9.75729e-25
-1.00001e-24
-1.02136e-24
-1.04335e-24
-1.06471e-24
-1.08532e-24
-1.10509e-24
-1.12394e-24
-1.14178e-24
-1.15852e-24
-1.17407e-24
-1.18837e-24
-1.20133e-24
-1.21289e-24
-1.22299e-24
-1.2316e-24
-1.24161e-24
-1.24406e-24
-1.24787e-24
-1.25008e-24
-1.2512e-24
-1.25314e-24
-1.32246e-24
-1.47013e-24
-1.61468e-24
-1.75368e-24
-1.88439e-24
-2.0048e-24
-2.11305e-24
-2.20746e-24
-2.28648e-24
-2.34876e-24
-2.39312e-24
-2.41862e-24
-2.42452e-24
-2.4103e-24
-2.37569e-24
-2.32064e-24
-2.24534e-24
-2.15019e-24
-2.03585e-24
-1.90316e-24
-1.75321e-24
-1.58723e-24
-1.40668e-24
-1.21314e-24
-1.00838e-24
-7.94243e-25
-5.72715e-25
-3.45845e-25
-1.15747e-25
)
;
    }
    outlet
    {
        type            cyclic;
        value           nonuniform List<scalar> 
120
(
3.28135e-27
9.85001e-27
1.64346e-26
2.30382e-26
2.96762e-26
3.6356e-26
4.30978e-26
4.98778e-26
5.67242e-26
6.36793e-26
7.07088e-26
7.7817e-26
8.50737e-26
9.24285e-26
9.99111e-26
1.07531e-25
1.153e-25
1.23226e-25
1.31321e-25
1.39594e-25
1.48057e-25
1.56721e-25
1.65595e-25
1.74519e-25
1.84028e-25
1.93611e-25
2.03548e-25
2.13554e-25
2.2394e-25
2.34844e-25
2.45831e-25
2.56888e-25
2.68509e-25
2.80473e-25
2.9279e-25
3.05201e-25
3.17955e-25
3.31707e-25
3.44678e-25
3.59602e-25
3.73065e-25
3.88582e-25
4.03563e-25
4.19336e-25
4.35231e-25
4.53072e-25
4.6955e-25
4.87637e-25
5.04648e-25
5.24151e-25
5.43361e-25
5.6306e-25
5.83244e-25
6.03899e-25
6.24563e-25
6.46588e-25
6.6858e-25
6.90967e-25
7.14671e-25
7.36941e-25
7.60447e-25
7.84197e-25
8.08135e-25
8.32213e-25
8.57452e-25
8.79364e-25
9.0457e-25
9.28533e-25
9.52276e-25
9.75729e-25
1.00001e-24
1.02136e-24
1.04335e-24
1.06471e-24
1.08532e-24
1.10509e-24
1.12394e-24
1.14178e-24
1.15852e-24
1.17407e-24
1.18837e-24
1.20133e-24
1.21289e-24
1.22299e-24
1.2316e-24
1.24161e-24
1.24406e-24
1.24787e-24
1.25008e-24
1.2512e-24
1.25314e-24
1.32246e-24
1.47013e-24
1.61468e-24
1.75368e-24
1.88439e-24
2.0048e-24
2.11305e-24
2.20746e-24
2.28648e-24
2.34876e-24
2.39312e-24
2.41862e-24
2.42452e-24
2.4103e-24
2.37569e-24
2.32064e-24
2.24534e-24
2.15019e-24
2.03585e-24
1.90316e-24
1.75321e-24
1.58723e-24
1.40668e-24
1.21314e-24
1.00838e-24
7.94243e-25
5.72715e-25
3.45845e-25
1.15747e-25
)
;
    }
    top
    {
        type            fixedValue;
        value           uniform 0;
    }
    bottom
    {
        type            fixedValue;
        value           uniform 0;
    }
    frontAndBackPlanes
    {
        type            empty;
        value           nonuniform List<scalar> 0();
    }
}


// ************************************************************************* //
