/*--------------------------------*- C++ -*----------------------------------*\
| =========                 |                                                 |
| \\      /  F ield         | OpenFOAM: The Open Source CFD Toolbox           |
|  \\    /   O peration     | Version:  2206                                  |
|   \\  /    A nd           | Website:  www.openfoam.com                      |
|    \\/     M anipulation  |                                                 |
\*---------------------------------------------------------------------------*/
FoamFile
{
    version     2.0;
    format      ascii;
    arch        "LSB;label=32;scalar=64";
    class       surfaceScalarField;
    location    "1460";
    object      phi.a;
}
// * * * * * * * * * * * * * * * * * * * * * * * * * * * * * * * * * * * * * //

dimensions      [0 3 -1 0 0 0 0];

oriented        oriented;

internalField   nonuniform List<scalar> 
119
(
-5.44234e-16
-1.10058e-15
-1.65623e-15
-2.22547e-15
-2.79422e-15
-3.37643e-15
-3.9586e-15
-4.55377e-15
-5.1496e-15
-5.75775e-15
-6.36743e-15
-6.98857e-15
-7.61223e-15
-8.24637e-15
-8.88407e-15
-9.53117e-15
-1.01829e-14
-1.08429e-14
-1.15085e-14
-1.21812e-14
-1.28607e-14
-1.35459e-14
-1.42389e-14
-1.49362e-14
-1.56423e-14
-1.63515e-14
-1.70702e-14
-1.77907e-14
-1.85214e-14
-1.92526e-14
-1.99946e-14
-2.07358e-14
-2.14883e-14
-2.22387e-14
-2.30008e-14
-2.37597e-14
-2.45303e-14
-2.52969e-14
-2.60752e-14
-2.68485e-14
-2.76336e-14
-2.84131e-14
-2.9204e-14
-2.9989e-14
-3.07851e-14
-3.15751e-14
-3.23759e-14
-3.31706e-14
-3.39758e-14
-3.4775e-14
-3.55844e-14
-3.63884e-14
-3.7202e-14
-3.80109e-14
-3.8829e-14
-3.9643e-14
-4.04657e-14
-4.12851e-14
-4.21125e-14
-4.29372e-14
-4.3769e-14
-4.45986e-14
-4.54342e-14
-4.62677e-14
-4.71058e-14
-4.79415e-14
-4.87802e-14
-4.96159e-14
-5.0453e-14
-5.12866e-14
-5.212e-14
-5.29499e-14
-5.37789e-14
-5.4605e-14
-5.54304e-14
-5.62553e-14
-5.70796e-14
-5.79078e-14
-5.87343e-14
-5.95708e-14
-6.04011e-14
-6.12418e-14
-6.20708e-14
-6.2872e-14
-6.36777e-14
-6.42796e-14
-6.50154e-14
-6.49789e-14
-6.6053e-14
-1.06557e-13
-3.33473e-11
-8.00081e-11
-8.08886e-11
-8.08356e-11
-8.08367e-11
-8.08042e-11
-8.08034e-11
-8.09255e-11
-8.12726e-11
-8.16532e-11
-8.18699e-11
-8.19545e-11
-8.19884e-11
-8.20062e-11
-8.20176e-11
-8.20247e-11
-8.20285e-11
-8.20301e-11
-8.20307e-11
-8.2031e-11
-8.20311e-11
-8.20311e-11
-8.20311e-11
-8.2031e-11
-8.20308e-11
-8.20302e-11
-8.20268e-11
-8.1994e-11
-8.13265e-11
)
;

boundaryField
{
    inlet
    {
        type            cyclic;
        value           nonuniform List<scalar> 
120
(
-3.28135e-27
-9.85e-27
-1.64325e-26
-2.30382e-26
-2.96762e-26
-3.6356e-26
-4.30868e-26
-4.98778e-26
-5.67387e-26
-6.36794e-26
-7.07089e-26
-7.7837e-26
-8.50738e-26
-9.24285e-26
-9.99111e-26
-1.07531e-25
-1.153e-25
-1.23226e-25
-1.31321e-25
-1.39594e-25
-1.48057e-25
-1.56721e-25
-1.65596e-25
-1.74693e-25
-1.84029e-25
-1.9361e-25
-2.03449e-25
-2.13553e-25
-2.23939e-25
-2.34617e-25
-2.45596e-25
-2.56887e-25
-2.68509e-25
-2.80473e-25
-2.92791e-25
-3.05482e-25
-3.18243e-25
-3.31413e-25
-3.4498e-25
-3.58975e-25
-3.73385e-25
-3.8825e-25
-4.03561e-25
-4.19338e-25
-4.35589e-25
-4.52333e-25
-4.69545e-25
-4.87251e-25
-5.05443e-25
-5.24154e-25
-5.43362e-25
-5.6306e-25
-5.83244e-25
-6.03901e-25
-6.25019e-25
-6.4659e-25
-6.6858e-25
-6.90962e-25
-7.13682e-25
-7.36937e-25
-7.60447e-25
-7.84197e-25
-8.08135e-25
-8.32208e-25
-8.56355e-25
-8.80481e-25
-9.04575e-25
-9.28533e-25
-9.52276e-25
-9.75723e-25
-9.98787e-25
-1.02135e-24
-1.04335e-24
-1.06471e-24
-1.08532e-24
-1.10509e-24
-1.12394e-24
-1.14178e-24
-1.15852e-24
-1.17407e-24
-1.18837e-24
-1.20133e-24
-1.21289e-24
-1.22299e-24
-1.23158e-24
-1.23864e-24
-1.24405e-24
-1.24787e-24
-1.25008e-24
-1.25118e-24
-1.25188e-24
-1.32219e-24
-1.29594e-24
-8.79705e-25
-8.19531e-25
-7.11646e-25
-7.07059e-25
-7.06083e-25
-6.15429e-25
-4.29879e-25
-2.87748e-25
-2.24427e-25
-1.97948e-25
-1.83633e-25
-1.73809e-25
-1.66791e-25
-1.62454e-25
-1.60304e-25
-1.59404e-25
-1.59025e-25
-1.58837e-25
-1.58724e-25
-1.58651e-25
-1.58604e-25
-1.58578e-25
-1.58569e-25
-1.58582e-25
-1.58647e-25
-1.58759e-25
-1.54837e-25
)
;
    }
    outlet
    {
        type            cyclic;
        value           nonuniform List<scalar> 
120
(
3.28135e-27
9.85e-27
1.64325e-26
2.30382e-26
2.96762e-26
3.6356e-26
4.30868e-26
4.98778e-26
5.67387e-26
6.36794e-26
7.07089e-26
7.7837e-26
8.50738e-26
9.24285e-26
9.99111e-26
1.07531e-25
1.153e-25
1.23226e-25
1.31321e-25
1.39594e-25
1.48057e-25
1.56721e-25
1.65596e-25
1.74693e-25
1.84029e-25
1.9361e-25
2.03449e-25
2.13553e-25
2.23939e-25
2.34617e-25
2.45596e-25
2.56887e-25
2.68509e-25
2.80473e-25
2.92791e-25
3.05482e-25
3.18243e-25
3.31413e-25
3.4498e-25
3.58975e-25
3.73385e-25
3.8825e-25
4.03561e-25
4.19338e-25
4.35589e-25
4.52333e-25
4.69545e-25
4.87251e-25
5.05443e-25
5.24154e-25
5.43362e-25
5.6306e-25
5.83244e-25
6.03901e-25
6.25019e-25
6.4659e-25
6.6858e-25
6.90962e-25
7.13682e-25
7.36937e-25
7.60447e-25
7.84197e-25
8.08135e-25
8.32208e-25
8.56355e-25
8.80481e-25
9.04575e-25
9.28533e-25
9.52276e-25
9.75723e-25
9.98787e-25
1.02135e-24
1.04335e-24
1.06471e-24
1.08532e-24
1.10509e-24
1.12394e-24
1.14178e-24
1.15852e-24
1.17407e-24
1.18837e-24
1.20133e-24
1.21289e-24
1.22299e-24
1.23158e-24
1.23864e-24
1.24405e-24
1.24787e-24
1.25008e-24
1.25118e-24
1.25188e-24
1.32219e-24
1.29594e-24
8.79705e-25
8.19531e-25
7.11646e-25
7.07059e-25
7.06083e-25
6.15429e-25
4.29879e-25
2.87748e-25
2.24427e-25
1.97948e-25
1.83633e-25
1.73809e-25
1.66791e-25
1.62454e-25
1.60304e-25
1.59404e-25
1.59025e-25
1.58837e-25
1.58724e-25
1.58651e-25
1.58604e-25
1.58578e-25
1.58569e-25
1.58582e-25
1.58647e-25
1.58759e-25
1.54837e-25
)
;
    }
    top
    {
        type            fixedValue;
        value           uniform 0;
    }
    bottom
    {
        type            fixedValue;
        value           uniform 0;
    }
    frontAndBackPlanes
    {
        type            empty;
        value           nonuniform List<scalar> 0();
    }
}


// ************************************************************************* //
