/*--------------------------------*- C++ -*----------------------------------*\
| =========                 |                                                 |
| \\      /  F ield         | OpenFOAM: The Open Source CFD Toolbox           |
|  \\    /   O peration     | Version:  2206                                  |
|   \\  /    A nd           | Website:  www.openfoam.com                      |
|    \\/     M anipulation  |                                                 |
\*---------------------------------------------------------------------------*/
FoamFile
{
    version     2.0;
    format      ascii;
    arch        "LSB;label=32;scalar=64";
    class       volVectorField;
    location    "1460";
    object      U.a;
}
// * * * * * * * * * * * * * * * * * * * * * * * * * * * * * * * * * * * * * //

dimensions      [0 1 -1 0 0 0 0];

internalField   nonuniform List<vector> 
120
(
(1.09378e-20 1.4926e-08 0)
(3.28333e-20 -1.9812e-09 0)
(5.47751e-20 -4.13315e-09 0)
(7.67939e-20 -5.06789e-09 0)
(9.89207e-20 -7.29588e-09 0)
(1.21187e-19 -8.22721e-09 0)
(1.43623e-19 -1.05307e-08 0)
(1.66259e-19 -1.14611e-08 0)
(1.89129e-19 -1.38376e-08 0)
(2.12265e-19 -1.4771e-08 0)
(2.35696e-19 -1.72165e-08 0)
(2.59457e-19 -1.81579e-08 0)
(2.83579e-19 -2.06675e-08 0)
(3.08095e-19 -2.16224e-08 0)
(3.33037e-19 -2.41907e-08 0)
(3.58438e-19 -2.5165e-08 0)
(3.84332e-19 -2.77858e-08 0)
(4.10753e-19 -2.87857e-08 0)
(4.37735e-19 -3.14524e-08 0)
(4.65314e-19 -3.24839e-08 0)
(4.93524e-19 -3.51896e-08 0)
(5.22402e-19 -3.62587e-08 0)
(5.51985e-19 -3.89961e-08 0)
(5.8231e-19 -4.01086e-08 0)
(6.1343e-19 -4.28704e-08 0)
(6.45368e-19 -4.40314e-08 0)
(6.78162e-19 -4.681e-08 0)
(7.11844e-19 -4.80245e-08 0)
(7.46462e-19 -5.08124e-08 0)
(7.82058e-19 -5.20844e-08 0)
(8.18653e-19 -5.48741e-08 0)
(8.5629e-19 -5.62071e-08 0)
(8.9503e-19 -5.89915e-08 0)
(9.34911e-19 -6.0388e-08 0)
(9.7597e-19 -6.31602e-08 0)
(1.01827e-18 -6.46221e-08 0)
(1.06081e-18 -6.73758e-08 0)
(1.10471e-18 -6.8904e-08 0)
(1.14993e-18 -7.16338e-08 0)
(1.19658e-18 -7.32286e-08 0)
(1.24462e-18 -7.59298e-08 0)
(1.29417e-18 -7.75905e-08 0)
(1.3452e-18 -8.02596e-08 0)
(1.39779e-18 -8.19853e-08 0)
(1.45196e-18 -8.46197e-08 0)
(1.50778e-18 -8.64091e-08 0)
(1.56515e-18 -8.90077e-08 0)
(1.62417e-18 -9.08587e-08 0)
(1.68481e-18 -9.34219e-08 0)
(1.74718e-18 -9.53326e-08 0)
(1.81121e-18 -9.78617e-08 0)
(1.87687e-18 -9.98298e-08 0)
(1.94415e-18 -1.02328e-07 0)
(2.013e-18 -1.04351e-07 0)
(2.0834e-18 -1.06821e-07 0)
(2.1553e-18 -1.08896e-07 0)
(2.2286e-18 -1.11343e-07 0)
(2.30321e-18 -1.13467e-07 0)
(2.37894e-18 -1.15894e-07 0)
(2.45646e-18 -1.18064e-07 0)
(2.53482e-18 -1.20476e-07 0)
(2.61399e-18 -1.22686e-07 0)
(2.69378e-18 -1.25084e-07 0)
(2.77403e-18 -1.27328e-07 0)
(2.85452e-18 -1.29715e-07 0)
(2.93494e-18 -1.31984e-07 0)
(3.01525e-18 -1.34357e-07 0)
(3.09511e-18 -1.36644e-07 0)
(3.17425e-18 -1.39001e-07 0)
(3.25241e-18 -1.41294e-07 0)
(3.32929e-18 -1.43632e-07 0)
(3.4045e-18 -1.45924e-07 0)
(3.47785e-18 -1.48242e-07 0)
(3.54902e-18 -1.5053e-07 0)
(3.61772e-18 -1.52832e-07 0)
(3.68364e-18 -1.55115e-07 0)
(3.74647e-18 -1.57414e-07 0)
(3.80593e-18 -1.59695e-07 0)
(3.86173e-18 -1.62016e-07 0)
(3.91358e-18 -1.64287e-07 0)
(3.96122e-18 -1.66663e-07 0)
(4.00442e-18 -1.68899e-07 0)
(4.04295e-18 -1.71334e-07 0)
(4.07662e-18 -1.73505e-07 0)
(4.10528e-18 -1.75785e-07 0)
(4.12879e-18 -1.77987e-07 0)
(4.14683e-18 -1.79122e-07 0)
(4.15957e-18 -1.82096e-07 0)
(4.16693e-18 -1.78938e-07 0)
(4.17061e-18 -1.91992e-07 0)
(4.17294e-18 -3.58051e-07 0)
(4.40729e-18 -0.000149479 0)
(4.31978e-18 -0.000221959 0)
(2.93235e-18 -0.000224535 0)
(2.73177e-18 -0.000224633 0)
(2.37215e-18 -0.00022446 0)
(2.35686e-18 -0.000224452 0)
(2.35361e-18 -0.000224456 0)
(2.05143e-18 -0.000225131 0)
(1.43293e-18 -0.000226384 0)
(9.5916e-19 -0.000227245 0)
(7.48089e-19 -0.000227588 0)
(6.59827e-19 -0.000227715 0)
(6.12109e-19 -0.000227776 0)
(5.79364e-19 -0.000227814 0)
(5.55969e-19 -0.000227839 0)
(5.41512e-19 -0.000227854 0)
(5.34347e-19 -0.00022786 0)
(5.31345e-19 -0.000227863 0)
(5.30085e-19 -0.000227864 0)
(5.29456e-19 -0.000227864 0)
(5.29081e-19 -0.000227864 0)
(5.28837e-19 -0.000227864 0)
(5.28681e-19 -0.000227864 0)
(5.28592e-19 -0.000227864 0)
(5.28562e-19 -0.000227863 0)
(5.28606e-19 -0.00022786 0)
(5.28825e-19 -0.000227844 0)
(5.29198e-19 -0.000227678 0)
(5.16122e-19 -0.000224136 0)
)
;

boundaryField
{
    inlet
    {
        type            cyclic;
    }
    outlet
    {
        type            cyclic;
    }
    top
    {
        type            fixedValue;
        value           uniform (0 0 0);
    }
    bottom
    {
        type            fixedValue;
        value           uniform (0 0 0);
    }
    frontAndBackPlanes
    {
        type            empty;
    }
}


// ************************************************************************* //
