/*--------------------------------*- C++ -*----------------------------------*\
| =========                 |                                                 |
| \\      /  F ield         | OpenFOAM: The Open Source CFD Toolbox           |
|  \\    /   O peration     | Version:  2206                                  |
|   \\  /    A nd           | Website:  www.openfoam.com                      |
|    \\/     M anipulation  |                                                 |
\*---------------------------------------------------------------------------*/
FoamFile
{
    version     2.0;
    format      ascii;
    arch        "LSB;label=32;scalar=64";
    class       volVectorField;
    location    "1460";
    object      U.b;
}
// * * * * * * * * * * * * * * * * * * * * * * * * * * * * * * * * * * * * * //

dimensions      [0 1 -1 0 0 0 0];

internalField   nonuniform List<vector> 
120
(
(1.09378e-20 1.65436e-08 0)
(3.28334e-20 3.74287e-09 0)
(5.4782e-20 5.42536e-09 0)
(7.67939e-20 8.40061e-09 0)
(9.89207e-20 1.01241e-08 0)
(1.21187e-19 1.31836e-08 0)
(1.43659e-19 1.49159e-08 0)
(1.66259e-19 1.80693e-08 0)
(1.89081e-19 1.98154e-08 0)
(2.12264e-19 2.30594e-08 0)
(2.35696e-19 2.48239e-08 0)
(2.5939e-19 2.81542e-08 0)
(2.83579e-19 2.99423e-08 0)
(3.08095e-19 3.33532e-08 0)
(3.33037e-19 3.51706e-08 0)
(3.58438e-19 3.8656e-08 0)
(3.84332e-19 4.05089e-08 0)
(4.10753e-19 4.4062e-08 0)
(4.37735e-19 4.59562e-08 0)
(4.65314e-19 4.95697e-08 0)
(4.93524e-19 5.15112e-08 0)
(5.22402e-19 5.51772e-08 0)
(5.51983e-19 5.71716e-08 0)
(5.81729e-19 6.08818e-08 0)
(6.13427e-19 6.29342e-08 0)
(6.45369e-19 6.668e-08 0)
(6.78494e-19 6.8795e-08 0)
(7.11845e-19 7.25677e-08 0)
(7.46465e-19 7.47492e-08 0)
(7.82813e-19 7.85396e-08 0)
(8.19437e-19 8.07904e-08 0)
(8.56293e-19 8.45897e-08 0)
(8.9503e-19 8.69121e-08 0)
(9.34911e-19 9.07113e-08 0)
(9.75966e-19 9.31062e-08 0)
(1.01734e-18 9.68973e-08 0)
(1.05985e-18 9.93652e-08 0)
(1.10569e-18 1.0314e-07 0)
(1.14893e-18 1.0568e-07 0)
(1.19867e-18 1.09432e-07 0)
(1.24355e-18 1.12043e-07 0)
(1.29527e-18 1.15766e-07 0)
(1.34521e-18 1.18446e-07 0)
(1.39779e-18 1.22135e-07 0)
(1.45077e-18 1.24882e-07 0)
(1.51024e-18 1.28534e-07 0)
(1.56517e-18 1.31344e-07 0)
(1.62546e-18 1.34958e-07 0)
(1.68216e-18 1.3783e-07 0)
(1.74717e-18 1.41404e-07 0)
(1.8112e-18 1.44335e-07 0)
(1.87687e-18 1.47872e-07 0)
(1.94415e-18 1.50857e-07 0)
(2.013e-18 1.54359e-07 0)
(2.08188e-18 1.57397e-07 0)
(2.15529e-18 1.60868e-07 0)
(2.2286e-18 1.63954e-07 0)
(2.30322e-18 1.67397e-07 0)
(2.38224e-18 1.70527e-07 0)
(2.45647e-18 1.73945e-07 0)
(2.53482e-18 1.77113e-07 0)
(2.61399e-18 1.80507e-07 0)
(2.69378e-18 1.83705e-07 0)
(2.77404e-18 1.87074e-07 0)
(2.85817e-18 1.90291e-07 0)
(2.93121e-18 1.93632e-07 0)
(3.01523e-18 1.96855e-07 0)
(3.09511e-18 2.0016e-07 0)
(3.17425e-18 2.03373e-07 0)
(3.25243e-18 2.06635e-07 0)
(3.33335e-18 2.09823e-07 0)
(3.40452e-18 2.13033e-07 0)
(3.47785e-18 2.16185e-07 0)
(3.54902e-18 2.19339e-07 0)
(3.61772e-18 2.22446e-07 0)
(3.68364e-18 2.25549e-07 0)
(3.74647e-18 2.28608e-07 0)
(3.80593e-18 2.31672e-07 0)
(3.86173e-18 2.34673e-07 0)
(3.91358e-18 2.37716e-07 0)
(3.96122e-18 2.40634e-07 0)
(4.00442e-18 2.43641e-07 0)
(4.04295e-18 2.46418e-07 0)
(4.07662e-18 2.49202e-07 0)
(4.10532e-18 2.51772e-07 0)
(4.1387e-18 2.53556e-07 0)
(4.14688e-18 2.55979e-07 0)
(4.15957e-18 2.54449e-07 0)
(4.16694e-18 2.51364e-07 0)
(4.17065e-18 4.45963e-08 0)
(4.17713e-18 2.2453e-06 0)
(4.40819e-18 6.49597e-05 0)
(4.90044e-18 4.81912e-06 0)
(5.38226e-18 -3.88261e-06 0)
(5.84561e-18 -8.79818e-07 0)
(6.28131e-18 1.77401e-07 0)
(6.68265e-18 8.87491e-08 0)
(7.04351e-18 -1.64378e-09 0)
(7.3582e-18 -6.8478e-09 0)
(7.62161e-18 -7.73102e-10 0)
(7.82919e-18 4.11649e-10 0)
(7.97708e-18 1.13945e-10 0)
(8.06207e-18 -1.60016e-11 0)
(8.08173e-18 -1.09339e-11 0)
(8.03434e-18 -3.74548e-13 0)
(7.91898e-18 7.93541e-13 0)
(7.73547e-18 3.87014e-13 0)
(7.48445e-18 1.58363e-13 0)
(7.1673e-18 -8.09696e-14 0)
(6.78616e-18 -1.02263e-13 0)
(6.34388e-18 -2.02308e-13 0)
(5.84402e-18 -2.3955e-13 0)
(5.29077e-18 -1.23911e-14 0)
(4.68892e-18 -4.5756e-14 0)
(4.04382e-18 6.88132e-14 0)
(3.36126e-18 7.04832e-14 0)
(2.64748e-18 -3.42977e-15 0)
(1.90905e-18 -4.45831e-14 0)
(1.15282e-18 -1.83045e-13 0)
(3.85823e-19 -2.31849e-13 0)
)
;

boundaryField
{
    inlet
    {
        type            cyclic;
    }
    outlet
    {
        type            cyclic;
    }
    top
    {
        type            fixedValue;
        value           uniform (0 0 0);
    }
    bottom
    {
        type            fixedValue;
        value           uniform (0 0 0);
    }
    frontAndBackPlanes
    {
        type            empty;
    }
}


// ************************************************************************* //
