/*--------------------------------*- C++ -*----------------------------------*\
| =========                 |                                                 |
| \\      /  F ield         | OpenFOAM: The Open Source CFD Toolbox           |
|  \\    /   O peration     | Version:  2206                                  |
|   \\  /    A nd           | Website:  www.openfoam.com                      |
|    \\/     M anipulation  |                                                 |
\*---------------------------------------------------------------------------*/
FoamFile
{
    version     2.0;
    format      ascii;
    arch        "LSB;label=32;scalar=64";
    class       volScalarField;
    location    "1480";
    object      pff;
}
// * * * * * * * * * * * * * * * * * * * * * * * * * * * * * * * * * * * * * //

dimensions      [1 -1 -2 0 0 0 0];

internalField   nonuniform List<scalar> 
120
(
25.8356
25.3014
25.3037
24.7242
24.7106
24.1424
24.1178
23.5614
23.5254
22.9812
22.9333
22.4019
22.3417
21.8235
21.7505
21.2458
21.1598
20.6689
20.5697
20.0927
19.9802
19.5173
19.3915
18.9424
18.8035
18.3682
18.2163
17.7946
17.6301
17.2214
17.0447
16.6488
16.4604
16.0767
15.8772
15.505
15.295
14.9338
14.714
14.363
14.1342
13.7926
13.5555
13.2227
12.9782
12.6531
12.402
12.0841
11.8272
11.5155
11.2536
10.9475
10.6813
10.38
10.1103
9.81322
9.54066
9.2471
8.97229
8.68174
8.40522
8.11719
7.83944
7.5535
7.27493
6.99071
6.71167
6.42886
6.14961
5.86796
5.58873
5.30803
5.02899
4.74912
4.47037
4.19127
3.91284
3.63458
3.35636
3.07922
2.80088
2.52531
2.24653
1.97255
1.69439
1.41893
1.14886
0.856885
0.622309
0.25482
0
0
0
0
0
0
0
0
0
0
0
0
0
0
0
0
0
0
0
0
0
0
0
0
0
0
0
0
0
0
)
;

boundaryField
{
    inlet
    {
        type            cyclic;
    }
    outlet
    {
        type            cyclic;
    }
    top
    {
        type            calculated;
        value           uniform 0;
    }
    bottom
    {
        type            calculated;
        value           uniform 25.8356;
    }
    frontAndBackPlanes
    {
        type            empty;
    }
}


// ************************************************************************* //
