/*--------------------------------*- C++ -*----------------------------------*\
| =========                 |                                                 |
| \\      /  F ield         | OpenFOAM: The Open Source CFD Toolbox           |
|  \\    /   O peration     | Version:  2206                                  |
|   \\  /    A nd           | Website:  www.openfoam.com                      |
|    \\/     M anipulation  |                                                 |
\*---------------------------------------------------------------------------*/
FoamFile
{
    version     2.0;
    format      ascii;
    arch        "LSB;label=32;scalar=64";
    class       surfaceScalarField;
    location    "1480";
    object      phi.a;
}
// * * * * * * * * * * * * * * * * * * * * * * * * * * * * * * * * * * * * * //

dimensions      [0 3 -1 0 0 0 0];

oriented        oriented;

internalField   nonuniform List<scalar> 
119
(
-3.89786e-16
-7.88321e-16
-1.18611e-15
-1.594e-15
-2.00104e-15
-2.41839e-15
-2.835e-15
-3.26183e-15
-3.68832e-15
-4.12469e-15
-4.56135e-15
-5.00732e-15
-5.45442e-15
-5.9101e-15
-6.36789e-15
-6.83342e-15
-7.30213e-15
-7.77766e-15
-8.25751e-15
-8.74321e-15
-9.23442e-15
-9.73047e-15
-1.02332e-14
-1.07398e-14
-1.12543e-14
-1.17717e-14
-1.22981e-14
-1.28264e-14
-1.33649e-14
-1.39044e-14
-1.4455e-14
-1.50059e-14
-1.55687e-14
-1.61311e-14
-1.67063e-14
-1.72803e-14
-1.78678e-14
-1.84536e-14
-1.90532e-14
-1.96507e-14
-2.02624e-14
-2.08717e-14
-2.14951e-14
-2.21159e-14
-2.27509e-14
-2.3383e-14
-2.4029e-14
-2.46721e-14
-2.53286e-14
-2.59822e-14
-2.66487e-14
-2.73123e-14
-2.7988e-14
-2.86609e-14
-2.93449e-14
-3.00263e-14
-3.07176e-14
-3.14062e-14
-3.21035e-14
-3.2798e-14
-3.34995e-14
-3.4198e-14
-3.49018e-14
-3.5602e-14
-3.63055e-14
-3.70047e-14
-3.77052e-14
-3.84006e-14
-3.90954e-14
-3.97846e-14
-4.04716e-14
-4.1153e-14
-4.18314e-14
-4.25051e-14
-4.31754e-14
-4.38431e-14
-4.45069e-14
-4.51711e-14
-4.583e-14
-4.64919e-14
-4.71481e-14
-4.7804e-14
-4.84676e-14
-4.91016e-14
-4.98083e-14
-5.03666e-14
-5.12129e-14
-5.1573e-14
-5.28636e-14
-1.05683e-13
-5.16899e-12
-2.85353e-11
-5.60148e-11
-7.17098e-11
-7.7841e-11
-7.97484e-11
-8.06181e-11
-8.11366e-11
-8.1466e-11
-8.16752e-11
-8.1813e-11
-8.19073e-11
-8.1969e-11
-8.20038e-11
-8.20198e-11
-8.20259e-11
-8.2028e-11
-8.20288e-11
-8.20291e-11
-8.20292e-11
-8.20293e-11
-8.20293e-11
-8.20293e-11
-8.20292e-11
-8.20289e-11
-8.20283e-11
-8.20247e-11
-8.19914e-11
-8.13197e-11
)
;

boundaryField
{
    inlet
    {
        type            cyclic;
        value           nonuniform List<scalar> 
120
(
-3.36428e-27
-1.00989e-26
-1.68475e-26
-2.36196e-26
-3.04245e-26
-3.72718e-26
-4.41708e-26
-5.11308e-26
-5.81617e-26
-6.52734e-26
-7.24752e-26
-7.97769e-26
-8.71888e-26
-9.47203e-26
-1.02381e-25
-1.10183e-25
-1.18134e-25
-1.26245e-25
-1.34527e-25
-1.42991e-25
-1.51648e-25
-1.60507e-25
-1.69581e-25
-1.7888e-25
-1.88419e-25
-1.98207e-25
-2.08255e-25
-2.18573e-25
-2.29174e-25
-2.40071e-25
-2.51271e-25
-2.62787e-25
-2.74635e-25
-2.86828e-25
-2.99378e-25
-3.12296e-25
-3.25264e-25
-3.38629e-25
-3.52392e-25
-3.66573e-25
-3.81164e-25
-3.96192e-25
-4.11652e-25
-4.27558e-25
-4.43915e-25
-4.60734e-25
-4.77996e-25
-4.95717e-25
-5.13887e-25
-5.32526e-25
-5.51613e-25
-5.71139e-25
-5.91092e-25
-6.11457e-25
-6.32215e-25
-6.53353e-25
-6.74838e-25
-6.96638e-25
-7.1873e-25
-7.4123e-25
-7.63939e-25
-7.86805e-25
-8.09779e-25
-8.32808e-25
-8.55834e-25
-8.78773e-25
-9.01606e-25
-9.24241e-25
-9.46607e-25
-9.6863e-25
-9.90234e-25
-1.01132e-24
-1.03182e-24
-1.05168e-24
-1.0708e-24
-1.0891e-24
-1.10652e-24
-1.12297e-24
-1.13839e-24
-1.1527e-24
-1.16583e-24
-1.17773e-24
-1.18834e-24
-1.1976e-24
-1.20547e-24
-1.21191e-24
-1.21683e-24
-1.22025e-24
-1.22213e-24
-1.223e-24
-1.22366e-24
-1.26876e-24
-1.27717e-24
-1.02545e-24
-8.07758e-25
-6.65863e-25
-5.61587e-25
-4.72635e-25
-3.96388e-25
-3.34322e-25
-2.838e-25
-2.4128e-25
-2.06688e-25
-1.82546e-25
-1.69241e-25
-1.63424e-25
-1.61214e-25
-1.60381e-25
-1.60025e-25
-1.59838e-25
-1.59721e-25
-1.5964e-25
-1.59584e-25
-1.59546e-25
-1.59524e-25
-1.59514e-25
-1.5952e-25
-1.5955e-25
-1.59486e-25
-1.5461e-25
)
;
    }
    outlet
    {
        type            cyclic;
        value           nonuniform List<scalar> 
120
(
3.36428e-27
1.00989e-26
1.68475e-26
2.36196e-26
3.04245e-26
3.72718e-26
4.41708e-26
5.11308e-26
5.81617e-26
6.52734e-26
7.24752e-26
7.97769e-26
8.71888e-26
9.47203e-26
1.02381e-25
1.10183e-25
1.18134e-25
1.26245e-25
1.34527e-25
1.42991e-25
1.51648e-25
1.60507e-25
1.69581e-25
1.7888e-25
1.88419e-25
1.98207e-25
2.08255e-25
2.18573e-25
2.29174e-25
2.40071e-25
2.51271e-25
2.62787e-25
2.74635e-25
2.86828e-25
2.99378e-25
3.12296e-25
3.25264e-25
3.38629e-25
3.52392e-25
3.66573e-25
3.81164e-25
3.96192e-25
4.11652e-25
4.27558e-25
4.43915e-25
4.60734e-25
4.77996e-25
4.95717e-25
5.13887e-25
5.32526e-25
5.51613e-25
5.71139e-25
5.91092e-25
6.11457e-25
6.32215e-25
6.53353e-25
6.74838e-25
6.96638e-25
7.1873e-25
7.4123e-25
7.63939e-25
7.86805e-25
8.09779e-25
8.32808e-25
8.55834e-25
8.78773e-25
9.01606e-25
9.24241e-25
9.46607e-25
9.6863e-25
9.90234e-25
1.01132e-24
1.03182e-24
1.05168e-24
1.0708e-24
1.0891e-24
1.10652e-24
1.12297e-24
1.13839e-24
1.1527e-24
1.16583e-24
1.17773e-24
1.18834e-24
1.1976e-24
1.20547e-24
1.21191e-24
1.21683e-24
1.22025e-24
1.22213e-24
1.223e-24
1.22366e-24
1.26876e-24
1.27717e-24
1.02545e-24
8.07758e-25
6.65863e-25
5.61587e-25
4.72635e-25
3.96388e-25
3.34322e-25
2.838e-25
2.4128e-25
2.06688e-25
1.82546e-25
1.69241e-25
1.63424e-25
1.61214e-25
1.60381e-25
1.60025e-25
1.59838e-25
1.59721e-25
1.5964e-25
1.59584e-25
1.59546e-25
1.59524e-25
1.59514e-25
1.5952e-25
1.5955e-25
1.59486e-25
1.5461e-25
)
;
    }
    top
    {
        type            fixedValue;
        value           uniform 0;
    }
    bottom
    {
        type            fixedValue;
        value           uniform 0;
    }
    frontAndBackPlanes
    {
        type            empty;
        value           nonuniform List<scalar> 0();
    }
}


// ************************************************************************* //
