/*--------------------------------*- C++ -*----------------------------------*\
| =========                 |                                                 |
| \\      /  F ield         | OpenFOAM: The Open Source CFD Toolbox           |
|  \\    /   O peration     | Version:  2206                                  |
|   \\  /    A nd           | Website:  www.openfoam.com                      |
|    \\/     M anipulation  |                                                 |
\*---------------------------------------------------------------------------*/
FoamFile
{
    version     2.0;
    format      ascii;
    arch        "LSB;label=32;scalar=64";
    class       surfaceScalarField;
    location    "1480";
    object      phi.b;
}
// * * * * * * * * * * * * * * * * * * * * * * * * * * * * * * * * * * * * * //

dimensions      [0 3 -1 0 0 0 0];

oriented        oriented;

internalField   nonuniform List<scalar> 
119
(
5.84606e-16
1.18214e-15
1.77831e-15
2.3894e-15
2.99895e-15
3.62367e-15
4.24701e-15
4.88538e-15
5.52296e-15
6.17503e-15
6.82727e-15
7.4931e-15
8.16032e-15
8.84002e-15
9.52256e-15
1.02163e-14
1.09145e-14
1.16224e-14
1.23365e-14
1.30588e-14
1.37891e-14
1.45261e-14
1.52727e-14
1.60245e-14
1.67877e-14
1.75547e-14
1.83347e-14
1.9117e-14
1.99139e-14
2.07118e-14
2.15257e-14
2.23393e-14
2.31703e-14
2.39999e-14
2.48479e-14
2.56935e-14
2.65583e-14
2.74199e-14
2.83015e-14
2.9179e-14
3.00768e-14
3.097e-14
3.18836e-14
3.27922e-14
3.37209e-14
3.46444e-14
3.55875e-14
3.65251e-14
3.74815e-14
3.84324e-14
3.94012e-14
4.03644e-14
4.13442e-14
4.23184e-14
4.33076e-14
4.42912e-14
4.5288e-14
4.62791e-14
4.72812e-14
4.82772e-14
4.92817e-14
5.02795e-14
5.12829e-14
5.22787e-14
5.32768e-14
5.4266e-14
5.52541e-14
5.62318e-14
5.72053e-14
5.8167e-14
5.91218e-14
6.00643e-14
6.09978e-14
6.19196e-14
6.28309e-14
6.37325e-14
6.46216e-14
6.55036e-14
6.63692e-14
6.7229e-14
6.80691e-14
6.88943e-14
6.9714e-14
7.04697e-14
7.13016e-14
7.18875e-14
7.28213e-14
7.30085e-14
7.42272e-14
1.0195e-13
1.29061e-12
2.8885e-15
1.27452e-16
1.95803e-18
1.05368e-20
-2.40538e-20
9.81699e-21
7.67368e-21
4.01318e-21
1.34184e-20
-4.72451e-21
1.85188e-20
-1.18576e-20
-3.39475e-20
2.29128e-20
-3.35748e-20
-1.00065e-20
3.56689e-20
-3.94249e-20
2.11827e-20
8.25211e-21
-1.74341e-20
2.78942e-20
-2.59871e-20
7.43289e-22
-3.10053e-20
3.67005e-21
-2.75142e-20
3.79991e-20
)
;

boundaryField
{
    inlet
    {
        type            cyclic;
        value           nonuniform List<scalar> 
120
(
-3.36428e-27
-1.00989e-26
-1.6849e-26
-2.36196e-26
-3.04245e-26
-3.72718e-26
-4.41786e-26
-5.11308e-26
-5.81513e-26
-6.52733e-26
-7.24751e-26
-7.97626e-26
-8.71887e-26
-9.47203e-26
-1.02381e-25
-1.10183e-25
-1.18134e-25
-1.26245e-25
-1.34527e-25
-1.42991e-25
-1.51648e-25
-1.60507e-25
-1.6958e-25
-1.78755e-25
-1.88419e-25
-1.98208e-25
-2.08327e-25
-2.18573e-25
-2.29175e-25
-2.40234e-25
-2.51441e-25
-2.62788e-25
-2.74635e-25
-2.86828e-25
-2.99377e-25
-3.12091e-25
-3.25054e-25
-3.38844e-25
-3.52172e-25
-3.67032e-25
-3.80929e-25
-3.96436e-25
-4.11653e-25
-4.27557e-25
-4.4365e-25
-4.61281e-25
-4.78e-25
-4.96003e-25
-5.13294e-25
-5.32524e-25
-5.51613e-25
-5.71139e-25
-5.91092e-25
-6.11455e-25
-6.31871e-25
-6.53352e-25
-6.74838e-25
-6.96642e-25
-7.19483e-25
-7.41234e-25
-7.63939e-25
-7.86805e-25
-8.09779e-25
-8.32812e-25
-8.5668e-25
-8.77911e-25
-9.01602e-25
-9.24241e-25
-9.46607e-25
-9.68634e-25
-9.91179e-25
-1.01132e-24
-1.03182e-24
-1.05168e-24
-1.0708e-24
-1.0891e-24
-1.10652e-24
-1.12297e-24
-1.13839e-24
-1.1527e-24
-1.16583e-24
-1.17773e-24
-1.18834e-24
-1.1976e-24
-1.20548e-24
-1.21424e-24
-1.21684e-24
-1.22025e-24
-1.22214e-24
-1.22301e-24
-1.22451e-24
-1.27004e-24
-1.3663e-24
-1.45948e-24
-1.54802e-24
-1.63051e-24
-1.70556e-24
-1.77188e-24
-1.82828e-24
-1.87365e-24
-1.90705e-24
-1.92763e-24
-1.9347e-24
-1.92774e-24
-1.90636e-24
-1.87036e-24
-1.81969e-24
-1.75447e-24
-1.67499e-24
-1.5817e-24
-1.47521e-24
-1.35628e-24
-1.2258e-24
-1.0848e-24
-9.34441e-25
-7.75964e-25
-6.1072e-25
-4.40132e-25
-2.65682e-25
-8.88969e-26
)
;
    }
    outlet
    {
        type            cyclic;
        value           nonuniform List<scalar> 
120
(
3.36428e-27
1.00989e-26
1.6849e-26
2.36196e-26
3.04245e-26
3.72718e-26
4.41786e-26
5.11308e-26
5.81513e-26
6.52733e-26
7.24751e-26
7.97626e-26
8.71887e-26
9.47203e-26
1.02381e-25
1.10183e-25
1.18134e-25
1.26245e-25
1.34527e-25
1.42991e-25
1.51648e-25
1.60507e-25
1.6958e-25
1.78755e-25
1.88419e-25
1.98208e-25
2.08327e-25
2.18573e-25
2.29175e-25
2.40234e-25
2.51441e-25
2.62788e-25
2.74635e-25
2.86828e-25
2.99377e-25
3.12091e-25
3.25054e-25
3.38844e-25
3.52172e-25
3.67032e-25
3.80929e-25
3.96436e-25
4.11653e-25
4.27557e-25
4.4365e-25
4.61281e-25
4.78e-25
4.96003e-25
5.13294e-25
5.32524e-25
5.51613e-25
5.71139e-25
5.91092e-25
6.11455e-25
6.31871e-25
6.53352e-25
6.74838e-25
6.96642e-25
7.19483e-25
7.41234e-25
7.63939e-25
7.86805e-25
8.09779e-25
8.32812e-25
8.5668e-25
8.77911e-25
9.01602e-25
9.24241e-25
9.46607e-25
9.68634e-25
9.91179e-25
1.01132e-24
1.03182e-24
1.05168e-24
1.0708e-24
1.0891e-24
1.10652e-24
1.12297e-24
1.13839e-24
1.1527e-24
1.16583e-24
1.17773e-24
1.18834e-24
1.1976e-24
1.20548e-24
1.21424e-24
1.21684e-24
1.22025e-24
1.22214e-24
1.22301e-24
1.22451e-24
1.27004e-24
1.3663e-24
1.45948e-24
1.54802e-24
1.63051e-24
1.70556e-24
1.77188e-24
1.82828e-24
1.87365e-24
1.90705e-24
1.92763e-24
1.9347e-24
1.92774e-24
1.90636e-24
1.87036e-24
1.81969e-24
1.75447e-24
1.67499e-24
1.5817e-24
1.47521e-24
1.35628e-24
1.2258e-24
1.0848e-24
9.34441e-25
7.75964e-25
6.1072e-25
4.40132e-25
2.65682e-25
8.88969e-26
)
;
    }
    top
    {
        type            fixedValue;
        value           uniform 0;
    }
    bottom
    {
        type            fixedValue;
        value           uniform 0;
    }
    frontAndBackPlanes
    {
        type            empty;
        value           nonuniform List<scalar> 0();
    }
}


// ************************************************************************* //
