/*--------------------------------*- C++ -*----------------------------------*\
| =========                 |                                                 |
| \\      /  F ield         | OpenFOAM: The Open Source CFD Toolbox           |
|  \\    /   O peration     | Version:  2206                                  |
|   \\  /    A nd           | Website:  www.openfoam.com                      |
|    \\/     M anipulation  |                                                 |
\*---------------------------------------------------------------------------*/
FoamFile
{
    version     2.0;
    format      ascii;
    arch        "LSB;label=32;scalar=64";
    class       volVectorField;
    location    "1480";
    object      U.a;
}
// * * * * * * * * * * * * * * * * * * * * * * * * * * * * * * * * * * * * * //

dimensions      [0 1 -1 0 0 0 0];

internalField   nonuniform List<vector> 
120
(
(1.12143e-20 1.51279e-08 0)
(3.36629e-20 -1.32509e-09 0)
(5.61584e-20 -3.05446e-09 0)
(7.8732e-20 -3.53487e-09 0)
(1.01415e-19 -5.32074e-09 0)
(1.24239e-19 -5.79586e-09 0)
(1.47236e-19 -7.63967e-09 0)
(1.70436e-19 -8.11006e-09 0)
(1.93872e-19 -1.00113e-08 0)
(2.17578e-19 -1.04792e-08 0)
(2.41584e-19 -1.24358e-08 0)
(2.65923e-19 -1.29048e-08 0)
(2.90629e-19 -1.49136e-08 0)
(3.15734e-19 -1.53885e-08 0)
(3.41272e-19 -1.74454e-08 0)
(3.67275e-19 -1.79316e-08 0)
(3.93779e-19 -2.00317e-08 0)
(4.20817e-19 -2.05355e-08 0)
(4.48425e-19 -2.26736e-08 0)
(4.76638e-19 -2.32013e-08 0)
(5.05492e-19 -2.53719e-08 0)
(5.35024e-19 -2.59303e-08 0)
(5.65269e-19 -2.81277e-08 0)
(5.96267e-19 -2.87234e-08 0)
(6.28065e-19 -3.09421e-08 0)
(6.60691e-19 -3.15818e-08 0)
(6.94184e-19 -3.38163e-08 0)
(7.28576e-19 -3.45064e-08 0)
(7.63913e-19 -3.67513e-08 0)
(8.00236e-19 -3.7498e-08 0)
(8.37571e-19 -3.97483e-08 0)
(8.75957e-19 -4.05572e-08 0)
(9.15451e-19 -4.28084e-08 0)
(9.56095e-19 -4.36846e-08 0)
(9.97927e-19 -4.59324e-08 0)
(1.04099e-18 -4.68803e-08 0)
(1.08421e-18 -4.91212e-08 0)
(1.12876e-18 -5.01442e-08 0)
(1.17464e-18 -5.23752e-08 0)
(1.22191e-18 -5.3476e-08 0)
(1.27055e-18 -5.56944e-08 0)
(1.32064e-18 -5.68747e-08 0)
(1.37217e-18 -5.90786e-08 0)
(1.42519e-18 -6.0339e-08 0)
(1.47972e-18 -6.25269e-08 0)
(1.53578e-18 -6.3867e-08 0)
(1.59332e-18 -6.60381e-08 0)
(1.65239e-18 -6.74564e-08 0)
(1.71296e-18 -6.96103e-08 0)
(1.77509e-18 -7.11044e-08 0)
(1.83871e-18 -7.32412e-08 0)
(1.9038e-18 -7.48074e-08 0)
(1.97031e-18 -7.69276e-08 0)
(2.03819e-18 -7.85615e-08 0)
(2.10738e-18 -8.06657e-08 0)
(2.17784e-18 -8.2362e-08 0)
(2.24946e-18 -8.44507e-08 0)
(2.32213e-18 -8.62028e-08 0)
(2.39577e-18 -8.82762e-08 0)
(2.47077e-18 -9.00766e-08 0)
(2.54646e-18 -9.21344e-08 0)
(2.62268e-18 -9.39743e-08 0)
(2.69926e-18 -9.60148e-08 0)
(2.77603e-18 -9.78842e-08 0)
(2.85278e-18 -9.99048e-08 0)
(2.92924e-18 -1.01793e-07 0)
(3.00535e-18 -1.03789e-07 0)
(3.0808e-18 -1.05684e-07 0)
(3.15536e-18 -1.07653e-07 0)
(3.22877e-18 -1.09544e-07 0)
(3.30078e-18 -1.11481e-07 0)
(3.37106e-18 -1.13361e-07 0)
(3.43941e-18 -1.15267e-07 0)
(3.50559e-18 -1.1713e-07 0)
(3.56932e-18 -1.1901e-07 0)
(3.63035e-18 -1.20854e-07 0)
(3.68841e-18 -1.2272e-07 0)
(3.74325e-18 -1.24541e-07 0)
(3.79463e-18 -1.2641e-07 0)
(3.84232e-18 -1.28201e-07 0)
(3.8861e-18 -1.30088e-07 0)
(3.92577e-18 -1.31847e-07 0)
(3.96112e-18 -1.33731e-07 0)
(3.99199e-18 -1.35535e-07 0)
(4.01823e-18 -1.37251e-07 0)
(4.0397e-18 -1.39467e-07 0)
(4.05609e-18 -1.40344e-07 0)
(4.06748e-18 -1.44186e-07 0)
(4.07377e-18 -1.42331e-07 0)
(4.07665e-18 -1.53993e-07 0)
(4.07887e-18 -4.3196e-07 0)
(4.22921e-18 -2.26772e-05 0)
(4.25725e-18 -0.000124954 0)
(3.41816e-18 -0.00018599 0)
(2.69253e-18 -0.000212469 0)
(2.21954e-18 -0.000219986 0)
(1.87196e-18 -0.000223059 0)
(1.57545e-18 -0.000224819 0)
(1.32129e-18 -0.00022594 0)
(1.11441e-18 -0.000226648 0)
(9.46001e-19 -0.000227103 0)
(8.04267e-19 -0.000227414 0)
(6.88959e-19 -0.000227627 0)
(6.08487e-19 -0.000227756 0)
(5.64137e-19 -0.00022782 0)
(5.44745e-19 -0.000227845 0)
(5.37381e-19 -0.000227854 0)
(5.34603e-19 -0.000227857 0)
(5.33415e-19 -0.000227858 0)
(5.32793e-19 -0.000227859 0)
(5.32403e-19 -0.000227859 0)
(5.32134e-19 -0.000227859 0)
(5.31946e-19 -0.000227859 0)
(5.31821e-19 -0.000227859 0)
(5.31746e-19 -0.000227859 0)
(5.31715e-19 -0.000227858 0)
(5.31733e-19 -0.000227855 0)
(5.31833e-19 -0.000227838 0)
(5.31621e-19 -0.00022767 0)
(5.15367e-19 -0.000224107 0)
)
;

boundaryField
{
    inlet
    {
        type            cyclic;
    }
    outlet
    {
        type            cyclic;
    }
    top
    {
        type            fixedValue;
        value           uniform (0 0 0);
    }
    bottom
    {
        type            fixedValue;
        value           uniform (0 0 0);
    }
    frontAndBackPlanes
    {
        type            empty;
    }
}


// ************************************************************************* //
