/*--------------------------------*- C++ -*----------------------------------*\
| =========                 |                                                 |
| \\      /  F ield         | OpenFOAM: The Open Source CFD Toolbox           |
|  \\    /   O peration     | Version:  2206                                  |
|   \\  /    A nd           | Website:  www.openfoam.com                      |
|    \\/     M anipulation  |                                                 |
\*---------------------------------------------------------------------------*/
FoamFile
{
    version     2.0;
    format      ascii;
    arch        "LSB;label=32;scalar=64";
    class       volVectorField;
    location    "1480";
    object      U.b;
}
// * * * * * * * * * * * * * * * * * * * * * * * * * * * * * * * * * * * * * //

dimensions      [0 1 -1 0 0 0 0];

internalField   nonuniform List<vector> 
120
(
(1.12143e-20 1.62095e-08 0)
(3.36629e-20 2.77835e-09 0)
(5.61633e-20 3.78988e-09 0)
(7.8732e-20 6.11006e-09 0)
(1.01415e-19 7.15787e-09 0)
(1.24239e-19 9.53812e-09 0)
(1.47262e-19 1.05886e-08 0)
(1.70436e-19 1.30406e-08 0)
(1.93838e-19 1.4097e-08 0)
(2.17578e-19 1.66196e-08 0)
(2.41584e-19 1.76849e-08 0)
(2.65875e-19 2.02756e-08 0)
(2.90629e-19 2.13543e-08 0)
(3.15734e-19 2.40094e-08 0)
(3.41272e-19 2.51067e-08 0)
(3.67275e-19 2.78219e-08 0)
(3.93779e-19 2.89439e-08 0)
(4.20817e-19 3.17142e-08 0)
(4.48425e-19 3.28674e-08 0)
(4.76638e-19 3.56871e-08 0)
(5.05492e-19 3.68785e-08 0)
(5.35023e-19 3.97422e-08 0)
(5.65267e-19 4.09786e-08 0)
(5.95849e-19 4.38806e-08 0)
(6.28063e-19 4.51691e-08 0)
(6.60692e-19 4.81036e-08 0)
(6.94423e-19 4.94509e-08 0)
(7.28577e-19 5.24124e-08 0)
(7.63916e-19 5.38252e-08 0)
(8.00781e-19 5.68082e-08 0)
(8.38137e-19 5.82925e-08 0)
(8.7596e-19 6.12921e-08 0)
(9.15451e-19 6.28535e-08 0)
(9.56095e-19 6.5865e-08 0)
(9.97924e-19 6.75083e-08 0)
(1.0403e-18 7.05274e-08 0)
(1.08351e-18 7.22567e-08 0)
(1.12948e-18 7.52794e-08 0)
(1.17391e-18 7.70976e-08 0)
(1.22344e-18 8.01206e-08 0)
(1.26976e-18 8.20296e-08 0)
(1.32145e-18 8.50499e-08 0)
(1.37218e-18 8.70505e-08 0)
(1.42519e-18 9.00655e-08 0)
(1.47883e-18 9.21574e-08 0)
(1.5376e-18 9.5165e-08 0)
(1.59333e-18 9.73463e-08 0)
(1.65334e-18 1.00345e-07 0)
(1.71098e-18 1.02613e-07 0)
(1.77508e-18 1.05601e-07 0)
(1.83871e-18 1.07951e-07 0)
(1.9038e-18 1.10927e-07 0)
(1.97031e-18 1.13354e-07 0)
(2.03818e-18 1.16317e-07 0)
(2.10624e-18 1.18815e-07 0)
(2.17784e-18 1.21764e-07 0)
(2.24946e-18 1.24323e-07 0)
(2.32214e-18 1.27257e-07 0)
(2.39828e-18 1.29869e-07 0)
(2.47078e-18 1.32783e-07 0)
(2.54646e-18 1.35436e-07 0)
(2.62268e-18 1.38327e-07 0)
(2.69926e-18 1.41008e-07 0)
(2.77604e-18 1.43869e-07 0)
(2.8556e-18 1.46563e-07 0)
(2.92637e-18 1.49387e-07 0)
(3.00534e-18 1.52077e-07 0)
(3.0808e-18 1.54853e-07 0)
(3.15536e-18 1.57523e-07 0)
(3.22878e-18 1.60242e-07 0)
(3.30393e-18 1.62876e-07 0)
(3.37107e-18 1.65532e-07 0)
(3.43941e-18 1.68118e-07 0)
(3.50559e-18 1.70709e-07 0)
(3.56932e-18 1.7324e-07 0)
(3.63035e-18 1.75771e-07 0)
(3.68841e-18 1.78239e-07 0)
(3.74325e-18 1.80718e-07 0)
(3.79463e-18 1.83112e-07 0)
(3.84232e-18 1.85543e-07 0)
(3.8861e-18 1.87849e-07 0)
(3.92577e-18 1.90207e-07 0)
(3.96112e-18 1.92442e-07 0)
(3.99199e-18 1.94598e-07 0)
(4.01827e-18 1.96934e-07 0)
(4.04746e-18 1.98431e-07 0)
(4.05613e-18 2.01438e-07 0)
(4.06748e-18 2.0117e-07 0)
(4.07378e-18 2.04497e-07 0)
(4.07669e-18 9.35227e-08 0)
(4.08169e-18 4.09975e-07 0)
(4.23345e-18 1.02378e-05 0)
(4.55435e-18 6.45155e-07 0)
(4.86492e-18 -6.32691e-07 0)
(5.16008e-18 -1.37207e-07 0)
(5.43503e-18 3.04088e-08 0)
(5.6852e-18 1.43786e-08 0)
(5.90627e-18 -4.1948e-10 0)
(6.09425e-18 -1.1563e-09 0)
(6.24551e-18 -1.2414e-10 0)
(6.35683e-18 7.1994e-11 0)
(6.42542e-18 1.93667e-11 0)
(6.449e-18 -2.90472e-12 0)
(6.42579e-18 -1.9582e-12 0)
(6.35454e-18 -5.34375e-14 0)
(6.23453e-18 1.24602e-13 0)
(6.06562e-18 -3.25771e-14 0)
(5.84823e-18 2.76658e-14 0)
(5.5833e-18 -8.09062e-15 0)
(5.27234e-18 -2.63892e-14 0)
(4.91738e-18 4.05635e-14 0)
(4.52093e-18 -2.70235e-15 0)
(4.086e-18 1.5336e-14 0)
(3.61601e-18 2.50286e-15 0)
(3.1148e-18 -4.11169e-14 0)
(2.58655e-18 -4.81207e-14 0)
(2.03573e-18 -3.89712e-14 0)
(1.46711e-18 -3.13378e-14 0)
(8.85606e-19 2.17921e-14 0)
(2.96323e-19 1.42013e-14 0)
)
;

boundaryField
{
    inlet
    {
        type            cyclic;
    }
    outlet
    {
        type            cyclic;
    }
    top
    {
        type            fixedValue;
        value           uniform (0 0 0);
    }
    bottom
    {
        type            fixedValue;
        value           uniform (0 0 0);
    }
    frontAndBackPlanes
    {
        type            empty;
    }
}


// ************************************************************************* //
