/*--------------------------------*- C++ -*----------------------------------*\
| =========                 |                                                 |
| \\      /  F ield         | OpenFOAM: The Open Source CFD Toolbox           |
|  \\    /   O peration     | Version:  v2006                                 |
|   \\  /    A nd           | Website:  www.openfoam.com                      |
|    \\/     M anipulation  |                                                 |
\*---------------------------------------------------------------------------*/
FoamFile
{
    version     2.0;
    format      ascii;
    class       volScalarField;
    location    "240";
    object      nuEffb;
}
// * * * * * * * * * * * * * * * * * * * * * * * * * * * * * * * * * * * * * //

dimensions      [0 2 -1 0 0 0 0];


internalField   nonuniform List<scalar> 
120
(
0.000128253
0.000128128
0.000127995
0.000127853
0.000127701
0.000127535
0.000127355
0.000127157
0.000126936
0.000126684
0.00012639
0.000126041
0.000125644
0.000125189
0.000124652
0.000123704
0.000119307
0.000104714
9.83619e-05
9.61084e-05
9.52508e-05
9.49178e-05
9.47941e-05
9.4749e-05
9.47331e-05
9.47276e-05
9.47259e-05
9.47253e-05
9.47251e-05
9.47251e-05
9.47251e-05
9.47251e-05
9.47251e-05
9.47251e-05
9.47251e-05
9.47251e-05
9.47251e-05
9.47251e-05
9.47251e-05
9.4725e-05
9.4725e-05
9.4725e-05
9.4725e-05
9.4725e-05
9.4725e-05
9.4725e-05
9.4725e-05
9.4725e-05
9.4725e-05
9.4725e-05
9.4725e-05
9.4725e-05
9.4725e-05
9.4725e-05
9.4725e-05
9.4725e-05
9.4725e-05
9.4725e-05
9.4725e-05
9.4725e-05
9.4725e-05
9.4725e-05
9.4725e-05
9.4725e-05
9.4725e-05
9.4725e-05
9.4725e-05
9.4725e-05
9.4725e-05
9.4725e-05
9.4725e-05
9.4725e-05
9.4725e-05
9.4725e-05
9.4725e-05
9.4725e-05
9.4725e-05
9.4725e-05
9.4725e-05
9.4725e-05
9.4725e-05
9.4725e-05
9.4725e-05
9.4725e-05
9.4725e-05
9.4725e-05
9.4725e-05
9.47249e-05
9.47249e-05
9.47249e-05
9.47249e-05
9.47249e-05
9.47249e-05
9.47249e-05
9.4725e-05
9.47248e-05
9.47249e-05
9.47262e-05
9.47172e-05
9.47351e-05
9.47876e-05
9.44346e-05
9.56324e-05
8.68611e-05
9.61896e-05
2.2165e-05
2.10519e-05
2.105e-05
2.105e-05
2.105e-05
2.105e-05
2.105e-05
2.105e-05
2.105e-05
2.105e-05
2.105e-05
2.105e-05
2.105e-05
2.105e-05
2.105e-05
)
;

boundaryField
{
    inlet
    {
        type            cyclic;
    }
    outlet
    {
        type            cyclic;
    }
    top
    {
        type            calculated;
        value           uniform 2.105e-05;
    }
    bottom
    {
        type            calculated;
        value           uniform 0.000128253;
    }
    frontAndBackPlanes
    {
        type            empty;
    }
}


// ************************************************************************* //
