/*--------------------------------*- C++ -*----------------------------------*\
| =========                 |                                                 |
| \\      /  F ield         | OpenFOAM: The Open Source CFD Toolbox           |
|  \\    /   O peration     | Version:  v2006                                 |
|   \\  /    A nd           | Website:  www.openfoam.com                      |
|    \\/     M anipulation  |                                                 |
\*---------------------------------------------------------------------------*/
FoamFile
{
    version     2.0;
    format      ascii;
    class       volScalarField;
    location    "240";
    object      p;
}
// * * * * * * * * * * * * * * * * * * * * * * * * * * * * * * * * * * * * * //

dimensions      [1 -1 -2 0 0 0 0];


internalField   nonuniform List<scalar> 
120
(
19.7773
15.1157
10.4521
5.78652
1.11869
-3.55154
-8.22439
-12.9002
-17.5793
-22.2623
-26.9499
-31.643
-36.3424
-41.0482
-45.7588
-50.4714
-55.1824
-60.0816
-64.9978
-69.9067
-74.8132
-79.7187
-84.6239
-89.5289
-94.434
-99.339
-104.244
-109.149
-114.054
-118.959
-123.864
-128.769
-133.674
-138.579
-143.484
-148.389
-153.294
-158.199
-163.104
-168.009
-172.914
-177.819
-182.724
-187.629
-192.534
-197.439
-202.344
-207.249
-212.154
-217.059
-221.964
-226.869
-231.774
-236.679
-241.584
-246.489
-251.394
-256.299
-261.204
-266.109
-271.014
-275.919
-280.824
-285.729
-290.634
-295.539
-300.444
-305.349
-310.254
-315.159
-320.064
-324.969
-329.874
-334.779
-339.684
-344.589
-349.494
-354.399
-359.304
-364.209
-369.114
-374.019
-378.924
-383.829
-388.734
-393.639
-398.544
-403.449
-408.354
-413.259
-418.164
-423.069
-427.974
-432.879
-437.784
-442.689
-447.594
-452.499
-457.404
-462.309
-467.214
-472.118
-477.026
-481.932
-486.869
-491.598
-496.265
-500.924
-505.583
-510.243
-514.902
-519.562
-524.222
-528.882
-533.541
-538.201
-542.861
-547.521
-552.18
-556.84
)
;

boundaryField
{
    inlet
    {
        type            cyclic;
    }
    outlet
    {
        type            cyclic;
    }
    top
    {
        type            calculated;
        value           uniform -559.17;
    }
    bottom
    {
        type            calculated;
        value           uniform 22.1071;
    }
    frontAndBackPlanes
    {
        type            empty;
    }
}


// ************************************************************************* //
