/*--------------------------------*- C++ -*----------------------------------*\
| =========                 |                                                 |
| \\      /  F ield         | OpenFOAM: The Open Source CFD Toolbox           |
|  \\    /   O peration     | Version:  v2006                                 |
|   \\  /    A nd           | Website:  www.openfoam.com                      |
|    \\/     M anipulation  |                                                 |
\*---------------------------------------------------------------------------*/
FoamFile
{
    version     2.0;
    format      ascii;
    class       volScalarField;
    location    "240";
    object      p_rbgh;
}
// * * * * * * * * * * * * * * * * * * * * * * * * * * * * * * * * * * * * * //

dimensions      [1 -1 -2 0 0 0 0];


internalField   nonuniform List<scalar> 
120
(
22.1071
22.1053
22.1015
22.0956
22.0876
22.0771
22.064
22.048
22.0286
22.0053
21.9775
21.9442
21.9044
21.8584
21.8076
21.7547
21.7035
21.464
21.2076
20.9584
20.7117
20.4659
20.2205
19.9752
19.7299
19.4846
19.2394
18.9941
18.7489
18.5036
18.2584
18.0131
17.7679
17.5226
17.2774
17.0321
16.7869
16.5416
16.2964
16.0511
15.8059
15.5606
15.3154
15.0701
14.8249
14.5796
14.3344
14.0891
13.8439
13.5986
13.3534
13.1081
12.8629
12.6176
12.3724
12.1271
11.8819
11.6366
11.3914
11.1461
10.9009
10.6556
10.4104
10.1651
9.91989
9.67464
9.42939
9.18414
8.93889
8.69364
8.44839
8.20314
7.95789
7.71264
7.46739
7.22214
6.97689
6.73164
6.48639
6.24114
5.99589
5.75064
5.50539
5.26014
5.01489
4.76964
4.52439
4.27914
4.03389
3.78864
3.54339
3.29814
3.05289
2.80764
2.56239
2.31714
2.07189
1.82664
1.5814
1.33613
1.09085
0.846226
0.59887
0.352535
0.0753553
0.0060165
-0.00180789
-0.000562359
-1.95233e-05
4.29941e-05
3.27691e-06
-3.22267e-06
-3.78115e-07
2.4616e-07
5.05823e-08
-6.82726e-09
6.79305e-09
1.28744e-08
1.2259e-08
9.1894e-09
)
;

boundaryField
{
    inlet
    {
        type            cyclic;
    }
    outlet
    {
        type            cyclic;
    }
    top
    {
        type            fixedValue;
        value           uniform 0;
    }
    bottom
    {
        type            fixedFluxPressure;
        gradient        uniform 0;
        value           uniform 22.1071;
    }
    frontAndBackPlanes
    {
        type            empty;
    }
}


// ************************************************************************* //
