/*--------------------------------*- C++ -*----------------------------------*\
| =========                 |                                                 |
| \\      /  F ield         | OpenFOAM: The Open Source CFD Toolbox           |
|  \\    /   O peration     | Version:  v2006                                 |
|   \\  /    A nd           | Website:  www.openfoam.com                      |
|    \\/     M anipulation  |                                                 |
\*---------------------------------------------------------------------------*/
FoamFile
{
    version     2.0;
    format      ascii;
    class       surfaceScalarField;
    location    "240";
    object      phia;
}
// * * * * * * * * * * * * * * * * * * * * * * * * * * * * * * * * * * * * * //

dimensions      [0 3 -1 0 0 0 0];
oriented        oriented;


internalField   nonuniform List<scalar> 
119
(
-5.12345e-15
-1.06018e-14
-1.64788e-14
-2.28223e-14
-2.9743e-14
-3.74104e-14
-4.60664e-14
-5.60416e-14
-6.77791e-14
-8.18492e-14
-9.90511e-14
-1.19503e-13
-1.40404e-13
-1.57663e-13
-1.68068e-13
-1.80466e-13
-1.18542e-12
-1.84388e-12
-2.13224e-12
-2.24844e-12
-2.29528e-12
-2.31305e-12
-2.31966e-12
-2.32205e-12
-2.32289e-12
-2.32317e-12
-2.32327e-12
-2.32329e-12
-2.3233e-12
-2.3233e-12
-2.32331e-12
-2.32331e-12
-2.32331e-12
-2.32331e-12
-2.32331e-12
-2.32331e-12
-2.32331e-12
-2.32331e-12
-2.32331e-12
-2.32331e-12
-2.32331e-12
-2.32331e-12
-2.32331e-12
-2.32331e-12
-2.32331e-12
-2.32331e-12
-2.32331e-12
-2.32331e-12
-2.32331e-12
-2.32331e-12
-2.32331e-12
-2.32331e-12
-2.32331e-12
-2.32331e-12
-2.32331e-12
-2.32331e-12
-2.32331e-12
-2.32331e-12
-2.32331e-12
-2.32331e-12
-2.32331e-12
-2.32331e-12
-2.32331e-12
-2.32331e-12
-2.32331e-12
-2.32331e-12
-2.32331e-12
-2.32331e-12
-2.32331e-12
-2.32331e-12
-2.32331e-12
-2.32331e-12
-2.32331e-12
-2.32331e-12
-2.32331e-12
-2.32331e-12
-2.32331e-12
-2.32331e-12
-2.32331e-12
-2.32331e-12
-2.32331e-12
-2.32331e-12
-2.32331e-12
-2.32331e-12
-2.32331e-12
-2.32331e-12
-2.32331e-12
-2.32331e-12
-2.32331e-12
-2.32331e-12
-2.32331e-12
-2.32331e-12
-2.32332e-12
-2.32331e-12
-2.32331e-12
-2.32332e-12
-2.32327e-12
-2.32354e-12
-2.32304e-12
-2.32066e-12
-2.33668e-12
-2.28391e-12
-2.57395e-12
-2.24576e-12
-2.78579e-11
-2.36386e-11
-1.40843e-10
-8.2147e-11
-8.22948e-11
-8.22738e-11
-8.22755e-11
-8.2277e-11
-8.22767e-11
-8.22765e-11
-8.22766e-11
-8.22766e-11
-8.22765e-11
-8.22565e-11
-8.21697e-11
)
;

boundaryField
{
    inlet
    {
        type            cyclic;
        value           nonuniform List<scalar> 
120
(
1.43729e-28
4.29549e-28
7.11597e-28
1.0181e-27
1.3162e-27
1.60397e-27
1.87989e-27
2.20555e-27
2.51796e-27
2.7528e-27
2.97471e-27
3.18321e-27
3.31098e-27
3.41736e-27
3.49298e-27
3.54697e-27
3.62318e-27
2.44288e-25
4.74061e-25
8.50188e-25
1.45667e-24
2.35511e-24
3.57598e-24
5.11597e-24
2.13419e-24
-8.17638e-25
-4.02519e-24
-5.40117e-24
-7.57125e-24
-1.07224e-23
-1.01904e-23
-5.88506e-24
-2.30661e-24
8.59052e-25
3.90916e-24
7.09359e-24
5.80248e-24
-1.86102e-26
-1.04385e-24
-7.02982e-24
-3.94395e-24
-6.23004e-24
-4.49478e-24
-3.55601e-24
-3.36232e-24
-8.61928e-24
-4.96861e-24
-1.72322e-24
6.186e-24
4.79098e-24
3.79549e-24
3.29233e-24
3.3306e-24
3.86645e-24
4.7848e-24
1.12601e-24
-2.65642e-24
-6.89098e-24
-1.18977e-23
-8.39911e-24
-5.96327e-24
-4.53206e-24
-4.00764e-24
-4.24544e-24
-5.13756e-24
2.95321e-24
1.12738e-24
-1.12946e-24
-3.97311e-24
-7.5604e-24
-1.20815e-23
-8.14492e-24
-5.21815e-24
-3.15974e-24
-1.81217e-24
-1.00149e-24
-5.77437e-25
-4.42867e-25
-5.73119e-25
-1.02984e-24
-1.97161e-24
-3.65744e-24
-6.43326e-24
-1.06918e-23
-1.68044e-23
-2.51262e-23
-1.68041e-23
-1.06909e-23
-6.43077e-24
-3.65065e-24
-1.95382e-24
-9.85501e-25
-4.68584e-25
-2.1017e-25
-8.90125e-26
-3.56431e-26
-1.35131e-26
-4.85796e-27
-1.6588e-27
-5.38659e-28
-1.66679e-28
-4.93043e-29
-1.39067e-29
-4.10906e-30
-9.87496e-31
-8.97789e-31
-7.30405e-31
-5.91931e-31
-4.80019e-31
-3.89376e-31
-3.15517e-31
-2.54998e-31
-2.05094e-31
-1.63593e-31
-1.2872e-31
-9.8999e-32
-7.32163e-32
-5.03202e-32
-2.94029e-32
-9.63854e-33
)
;
    }
    outlet
    {
        type            cyclic;
        value           nonuniform List<scalar> 
120
(
-1.43729e-28
-4.29549e-28
-7.11597e-28
-1.0181e-27
-1.3162e-27
-1.60397e-27
-1.87989e-27
-2.20555e-27
-2.51796e-27
-2.7528e-27
-2.97471e-27
-3.18321e-27
-3.31098e-27
-3.41736e-27
-3.49298e-27
-3.54697e-27
-3.62318e-27
-2.44288e-25
-4.74061e-25
-8.50188e-25
-1.45667e-24
-2.35511e-24
-3.57598e-24
-5.11597e-24
-2.13419e-24
8.17638e-25
4.02519e-24
5.40117e-24
7.57125e-24
1.07224e-23
1.01904e-23
5.88506e-24
2.30661e-24
-8.59052e-25
-3.90916e-24
-7.09359e-24
-5.80248e-24
1.86102e-26
1.04385e-24
7.02982e-24
3.94395e-24
6.23004e-24
4.49478e-24
3.55601e-24
3.36232e-24
8.61928e-24
4.96861e-24
1.72322e-24
-6.186e-24
-4.79098e-24
-3.79549e-24
-3.29233e-24
-3.3306e-24
-3.86645e-24
-4.7848e-24
-1.12601e-24
2.65642e-24
6.89098e-24
1.18977e-23
8.39911e-24
5.96327e-24
4.53206e-24
4.00764e-24
4.24544e-24
5.13756e-24
-2.95321e-24
-1.12738e-24
1.12946e-24
3.97311e-24
7.5604e-24
1.20815e-23
8.14492e-24
5.21815e-24
3.15974e-24
1.81217e-24
1.00149e-24
5.77437e-25
4.42867e-25
5.73119e-25
1.02984e-24
1.97161e-24
3.65744e-24
6.43326e-24
1.06918e-23
1.68044e-23
2.51262e-23
1.68041e-23
1.06909e-23
6.43077e-24
3.65065e-24
1.95382e-24
9.85501e-25
4.68584e-25
2.1017e-25
8.90125e-26
3.56431e-26
1.35131e-26
4.85796e-27
1.6588e-27
5.38659e-28
1.66679e-28
4.93043e-29
1.39067e-29
4.10906e-30
9.87496e-31
8.97789e-31
7.30405e-31
5.91931e-31
4.80019e-31
3.89376e-31
3.15517e-31
2.54998e-31
2.05094e-31
1.63593e-31
1.2872e-31
9.8999e-32
7.32163e-32
5.03202e-32
2.94029e-32
9.63854e-33
)
;
    }
    top
    {
        type            fixedValue;
        value           uniform 0;
    }
    bottom
    {
        type            fixedValue;
        value           uniform 0;
    }
    frontAndBackPlanes
    {
        type            empty;
        value           nonuniform List<scalar> 0();
    }
}


// ************************************************************************* //
