/*--------------------------------*- C++ -*----------------------------------*\
| =========                 |                                                 |
| \\      /  F ield         | OpenFOAM: The Open Source CFD Toolbox           |
|  \\    /   O peration     | Version:  v2006                                 |
|   \\  /    A nd           | Website:  www.openfoam.com                      |
|    \\/     M anipulation  |                                                 |
\*---------------------------------------------------------------------------*/
FoamFile
{
    version     2.0;
    format      ascii;
    class       surfaceScalarField;
    location    "240";
    object      phib;
}
// * * * * * * * * * * * * * * * * * * * * * * * * * * * * * * * * * * * * * //

dimensions      [0 3 -1 0 0 0 0];
oriented        oriented;


internalField   nonuniform List<scalar> 
119
(
7.45201e-15
1.54017e-14
2.39086e-14
3.30662e-14
4.30285e-14
5.40324e-14
6.6415e-14
8.06362e-14
9.73062e-14
1.17202e-13
1.41399e-13
1.69987e-13
1.98903e-13
2.2229e-13
2.35263e-13
2.46004e-13
1.45835e-12
2.01276e-12
2.20465e-12
2.27754e-12
2.30647e-12
2.31716e-12
2.32112e-12
2.32256e-12
2.32306e-12
2.32323e-12
2.32328e-12
2.3233e-12
2.3233e-12
2.32331e-12
2.32331e-12
2.32331e-12
2.32331e-12
2.32331e-12
2.32331e-12
2.32331e-12
2.32331e-12
2.32331e-12
2.32331e-12
2.32331e-12
2.32331e-12
2.32331e-12
2.32331e-12
2.32331e-12
2.32331e-12
2.32331e-12
2.32331e-12
2.32331e-12
2.32331e-12
2.32331e-12
2.32331e-12
2.32331e-12
2.32331e-12
2.32331e-12
2.32331e-12
2.32331e-12
2.32331e-12
2.32331e-12
2.32331e-12
2.32331e-12
2.32331e-12
2.32331e-12
2.32331e-12
2.32331e-12
2.32331e-12
2.32331e-12
2.32331e-12
2.32331e-12
2.32331e-12
2.32331e-12
2.32331e-12
2.32331e-12
2.32331e-12
2.32331e-12
2.32331e-12
2.32331e-12
2.32331e-12
2.32331e-12
2.32331e-12
2.32331e-12
2.32331e-12
2.32331e-12
2.32331e-12
2.32332e-12
2.32332e-12
2.32332e-12
2.32332e-12
2.32332e-12
2.32332e-12
2.32332e-12
2.32332e-12
2.32332e-12
2.32332e-12
2.32332e-12
2.32332e-12
2.32333e-12
2.3233e-12
2.32345e-12
2.32309e-12
2.32181e-12
2.33307e-12
2.2934e-12
2.44776e-12
2.14364e-12
9.78357e-12
1.77843e-13
1.82216e-15
1.45065e-17
1.80673e-17
2.21359e-17
2.45269e-17
2.82605e-17
3.07342e-17
3.45442e-17
3.58684e-17
3.78792e-17
3.73699e-17
3.77143e-17
3.54449e-17
)
;

boundaryField
{
    inlet
    {
        type            cyclic;
        value           nonuniform List<scalar> 
120
(
1.43728e-28
4.29458e-28
6.91888e-28
1.01801e-27
1.3162e-27
1.60341e-27
1.75859e-27
2.20582e-27
2.69739e-27
2.75365e-27
2.97621e-27
3.49924e-27
3.31251e-27
3.41737e-27
3.49311e-27
3.55377e-27
4.90812e-27
2.44326e-25
4.74066e-25
8.50197e-25
1.45668e-24
2.35513e-24
3.57599e-24
5.09412e-24
2.13419e-24
-8.17645e-25
-4.01428e-24
-5.4012e-24
-7.57129e-24
-1.07006e-23
-1.01686e-23
-5.88509e-24
-2.30663e-24
8.59047e-25
3.90916e-24
7.07173e-24
5.78062e-24
3.25617e-27
-1.06572e-24
-6.9861e-24
-3.96584e-24
-6.2082e-24
-4.49481e-24
-3.55604e-24
-3.38421e-24
-8.57557e-24
-4.96862e-24
-1.70136e-24
6.14227e-24
4.79099e-24
3.79551e-24
3.29235e-24
3.33062e-24
3.86646e-24
4.76294e-24
1.12601e-24
-2.65644e-24
-6.891e-24
-1.1854e-23
-8.39914e-24
-5.96331e-24
-4.53209e-24
-4.00767e-24
-4.24546e-24
-5.09385e-24
2.90946e-24
1.12736e-24
-1.12948e-24
-3.97314e-24
-7.56043e-24
-1.20378e-23
-8.14496e-24
-5.21818e-24
-3.15977e-24
-1.81219e-24
-1.00151e-24
-5.77449e-25
-4.42877e-25
-5.73132e-25
-1.02986e-24
-1.97164e-24
-3.65748e-24
-6.43332e-24
-1.06918e-23
-1.68044e-23
-2.50388e-23
-1.68041e-23
-1.06909e-23
-6.43083e-24
-3.65069e-24
-1.95385e-24
-9.85519e-25
-4.68594e-25
-2.10176e-25
-8.90152e-26
-3.56444e-26
-1.35136e-26
-4.85818e-27
-1.65889e-27
-5.38689e-28
-1.66689e-28
-4.93075e-29
-1.39077e-29
-4.10933e-30
-9.87617e-31
-8.97794e-31
-7.30081e-31
-5.91779e-31
-4.80035e-31
-3.89392e-31
-3.15527e-31
-2.55009e-31
-2.051e-31
-1.636e-31
-1.28724e-31
-9.90043e-32
-7.32186e-32
-5.03233e-32
-2.94055e-32
-9.63975e-33
)
;
    }
    outlet
    {
        type            cyclic;
        value           nonuniform List<scalar> 
120
(
-1.43728e-28
-4.29458e-28
-6.91888e-28
-1.01801e-27
-1.3162e-27
-1.60341e-27
-1.75859e-27
-2.20582e-27
-2.69739e-27
-2.75365e-27
-2.97621e-27
-3.49924e-27
-3.31251e-27
-3.41737e-27
-3.49311e-27
-3.55377e-27
-4.90812e-27
-2.44326e-25
-4.74066e-25
-8.50197e-25
-1.45668e-24
-2.35513e-24
-3.57599e-24
-5.09412e-24
-2.13419e-24
8.17645e-25
4.01428e-24
5.4012e-24
7.57129e-24
1.07006e-23
1.01686e-23
5.88509e-24
2.30663e-24
-8.59047e-25
-3.90916e-24
-7.07173e-24
-5.78062e-24
-3.25617e-27
1.06572e-24
6.9861e-24
3.96584e-24
6.2082e-24
4.49481e-24
3.55604e-24
3.38421e-24
8.57557e-24
4.96862e-24
1.70136e-24
-6.14227e-24
-4.79099e-24
-3.79551e-24
-3.29235e-24
-3.33062e-24
-3.86646e-24
-4.76294e-24
-1.12601e-24
2.65644e-24
6.891e-24
1.1854e-23
8.39914e-24
5.96331e-24
4.53209e-24
4.00767e-24
4.24546e-24
5.09385e-24
-2.90946e-24
-1.12736e-24
1.12948e-24
3.97314e-24
7.56043e-24
1.20378e-23
8.14496e-24
5.21818e-24
3.15977e-24
1.81219e-24
1.00151e-24
5.77449e-25
4.42877e-25
5.73132e-25
1.02986e-24
1.97164e-24
3.65748e-24
6.43332e-24
1.06918e-23
1.68044e-23
2.50388e-23
1.68041e-23
1.06909e-23
6.43083e-24
3.65069e-24
1.95385e-24
9.85519e-25
4.68594e-25
2.10176e-25
8.90152e-26
3.56444e-26
1.35136e-26
4.85818e-27
1.65889e-27
5.38689e-28
1.66689e-28
4.93075e-29
1.39077e-29
4.10933e-30
9.87617e-31
8.97794e-31
7.30081e-31
5.91779e-31
4.80035e-31
3.89392e-31
3.15527e-31
2.55009e-31
2.051e-31
1.636e-31
1.28724e-31
9.90043e-32
7.32186e-32
5.03233e-32
2.94055e-32
9.63975e-33
)
;
    }
    top
    {
        type            fixedValue;
        value           uniform 0;
    }
    bottom
    {
        type            fixedValue;
        value           uniform 0;
    }
    frontAndBackPlanes
    {
        type            empty;
        value           nonuniform List<scalar> 0();
    }
}


// ************************************************************************* //
