/*--------------------------------*- C++ -*----------------------------------*\
| =========                 |                                                 |
| \\      /  F ield         | OpenFOAM: The Open Source CFD Toolbox           |
|  \\    /   O peration     | Version:  v2006                                 |
|   \\  /    A nd           | Website:  www.openfoam.com                      |
|    \\/     M anipulation  |                                                 |
\*---------------------------------------------------------------------------*/
FoamFile
{
    version     2.0;
    format      ascii;
    class       volTensorField;
    location    "240";
    object      Taua;
}
// * * * * * * * * * * * * * * * * * * * * * * * * * * * * * * * * * * * * * //

dimensions      [1 -1 -2 0 0 0 0];


internalField   nonuniform List<tensor> 
120
(
(0.0100098 0 0 -2.00647e-15 -0.0200196 0 0 0 0.0100098)
(0.0106025 0 0 -1.98754e-15 -0.0212051 0 0 0 0.0106025)
(0.0114264 0 0 -2.05994e-15 -0.0228527 0 0 0 0.0114264)
(0.0123381 0 0 -2.11612e-15 -0.0246762 0 0 0 0.0123381)
(0.013456 0 0 -2.05054e-15 -0.0269121 0 0 0 0.013456)
(0.0149059 0 0 -1.9729e-15 -0.0298118 0 0 0 0.0149059)
(0.0168237 0 0 -2.10555e-15 -0.0336474 0 0 0 0.0168237)
(0.0193652 0 0 -2.23323e-15 -0.0387303 0 0 0 0.0193652)
(0.0227622 0 0 -1.91537e-15 -0.0455244 0 0 0 0.0227622)
(0.0275017 0 0 -1.59862e-15 -0.0550035 0 0 0 0.0275017)
(0.0338062 0 0 -1.50645e-15 -0.0676123 0 0 0 0.0338062)
(0.0395995 0 0 -1.17698e-15 -0.079199 0 0 0 0.0395995)
(0.0402852 0 0 -8.19527e-16 -0.0805704 0 0 0 0.0402852)
(0.0325098 0 0 -6.36971e-16 -0.0650197 0 0 0 0.0325098)
(0.0233431 0 0 -4.53618e-16 -0.0466861 0 0 0 0.0233431)
(0.0120601 0 0 -1.80875e-16 -0.0241201 0 0 0 0.0120601)
(1.18834e-05 0 0 -2.11032e-18 -2.37668e-05 0 0 0 1.18834e-05)
(4.71609e-07 0 0 -8.75535e-19 -9.43219e-07 0 0 0 4.71609e-07)
(-1.61359e-06 0 0 -1.08587e-18 3.22719e-06 0 0 0 -1.61359e-06)
(5.2098e-07 0 0 -1.73555e-18 -1.04196e-06 0 0 0 5.2098e-07)
(2.18636e-07 0 0 -2.64298e-18 -4.37273e-07 0 0 0 2.18636e-07)
(6.36297e-08 0 0 -3.71364e-18 -1.27259e-07 0 0 0 6.36297e-08)
(2.6078e-08 0 0 -4.83376e-18 -5.21561e-08 0 0 0 2.6078e-08)
(9.99466e-09 0 0 2.52355e-18 -1.99893e-08 0 0 0 9.99466e-09)
(3.54583e-09 0 0 1.03844e-17 -7.09167e-09 0 0 0 3.54583e-09)
(1.23443e-09 0 0 1.07791e-17 -2.46885e-09 0 0 0 1.23443e-09)
(4.14209e-10 0 0 8.02122e-18 -8.28417e-10 0 0 0 4.14209e-10)
(1.32644e-10 0 0 6.20561e-18 -2.65288e-10 0 0 0 1.32644e-10)
(4.13051e-11 0 0 9.31224e-18 -8.26101e-11 0 0 0 4.13051e-11)
(1.22613e-11 0 0 4.58349e-18 -2.45226e-11 0 0 0 1.22613e-11)
(4.14268e-12 0 0 -8.46541e-18 -8.28536e-12 0 0 0 4.14268e-12)
(1.16793e-12 0 0 -1.37966e-17 -2.33587e-12 0 0 0 1.16793e-12)
(3.13211e-13 0 0 -1.18022e-17 -6.26422e-13 0 0 0 3.13211e-13)
(-2.71415e-13 0 0 -1.08776e-17 5.4283e-13 0 0 0 -2.71415e-13)
(1.34803e-13 0 0 -1.09104e-17 -2.69607e-13 0 0 0 1.34803e-13)
(1.93928e-13 0 0 -3.31331e-18 -3.87857e-13 0 0 0 1.93928e-13)
(4.50941e-13 0 0 1.24464e-17 -9.01882e-13 0 0 0 4.50941e-13)
(3.9018e-13 0 0 1.19811e-17 -7.80359e-13 0 0 0 3.9018e-13)
(5.24154e-13 0 0 1.22696e-17 -1.04831e-12 0 0 0 5.24154e-13)
(3.55245e-13 0 0 5.07518e-18 -7.1049e-13 0 0 0 3.55245e-13)
(2.65961e-13 0 0 -1.39961e-18 -5.31923e-13 0 0 0 2.65961e-13)
(1.24206e-13 0 0 9.63955e-19 -2.48412e-13 0 0 0 1.24206e-13)
(2.10218e-13 0 0 -4.67956e-18 -4.20436e-13 0 0 0 2.10218e-13)
(2.18069e-13 0 0 -1.98182e-18 -4.36138e-13 0 0 0 2.18069e-13)
(2.70664e-13 0 0 8.86073e-18 -5.41328e-13 0 0 0 2.70664e-13)
(2.47392e-13 0 0 2.81101e-18 -4.94784e-13 0 0 0 2.47392e-13)
(2.54335e-13 0 0 -1.20681e-17 -5.0867e-13 0 0 0 2.54335e-13)
(1.97816e-13 0 0 -1.95206e-17 -3.95632e-13 0 0 0 1.97816e-13)
(1.55192e-13 0 0 -1.13998e-17 -3.10384e-13 0 0 0 1.55192e-13)
(1.0983e-13 0 0 4.18339e-18 -2.1966e-13 0 0 0 1.0983e-13)
(1.12195e-13 0 0 2.62263e-18 -2.24389e-13 0 0 0 1.12195e-13)
(1.05433e-13 0 0 8.13555e-19 -2.10866e-13 0 0 0 1.05433e-13)
(1.07201e-13 0 0 -1.0047e-18 -2.14401e-13 0 0 0 1.07201e-13)
(9.70813e-14 0 0 -2.54485e-18 -1.94163e-13 0 0 0 9.70813e-14)
(8.97949e-14 0 0 4.79576e-18 -1.7959e-13 0 0 0 8.97949e-14)
(7.31052e-14 0 0 1.30221e-17 -1.4621e-13 0 0 0 7.31052e-14)
(5.76068e-14 0 0 1.40297e-17 -1.15214e-13 0 0 0 5.76068e-14)
(4.60571e-14 0 0 1.61722e-17 -9.21141e-14 0 0 0 4.60571e-14)
(4.20338e-14 -1.17803e-21 0 2.63922e-18 -8.40675e-14 0 0 0 4.20338e-14)
(4.16245e-14 0 0 -1.03853e-17 -8.32491e-14 0 0 0 4.16245e-14)
(3.94041e-14 0 0 -6.76734e-18 -7.88082e-14 0 0 0 3.94041e-14)
(4.17129e-14 0 0 -3.42234e-18 -8.34257e-14 0 0 0 4.17129e-14)
(3.82975e-14 0 0 -5.01586e-19 -7.65951e-14 0 0 0 3.82975e-14)
(3.83372e-14 0 0 1.97737e-18 -7.66744e-14 0 0 0 3.83372e-14)
(2.70763e-14 0 0 -1.25976e-17 -5.41526e-14 0 0 0 2.70763e-14)
(3.35707e-14 0 0 -1.09637e-17 -6.71414e-14 0 0 0 3.35707e-14)
(2.81496e-14 0 0 7.14468e-18 -5.62991e-14 0 0 0 2.81496e-14)
(4.73535e-14 0 0 8.92586e-18 -9.4707e-14 0 0 0 4.73535e-14)
(3.81245e-14 0 0 1.12541e-17 -7.6249e-14 0 0 0 3.81245e-14)
(7.02543e-14 0 0 1.41896e-17 -1.40509e-13 0 0 0 7.02543e-14)
(5.97032e-14 0 0 1.02291e-18 -1.19406e-13 0 0 0 5.97032e-14)
(7.99491e-14 0 0 -1.20108e-17 -1.59898e-13 0 0 0 7.99491e-14)
(2.58757e-14 0 0 -8.72407e-18 -5.17514e-14 0 0 0 2.58757e-14)
(7.03495e-14 0 0 -5.96045e-18 -1.40699e-13 0 0 0 7.03495e-14)
(4.05799e-14 0 0 -3.77694e-18 -8.11598e-14 0 0 0 4.05799e-14)
(1.25682e-13 0 0 -2.16079e-18 -2.51364e-13 0 0 0 1.25682e-13)
(6.0794e-14 0 0 -9.77594e-19 -1.21588e-13 0 0 0 6.0794e-14)
(1.94859e-13 0 0 -7.55693e-21 -3.89718e-13 0 0 0 1.94859e-13)
(1.37911e-13 0 0 1.0272e-18 -2.75822e-13 0 0 0 1.37911e-13)
(2.02576e-13 0 0 2.44737e-18 -4.05152e-13 0 0 0 2.02576e-13)
(-4.30651e-14 0 0 4.59829e-18 8.61302e-14 0 0 0 -4.30651e-14)
(9.19257e-14 0 0 7.80788e-18 -1.83851e-13 0 0 0 9.19257e-14)
(-2.56035e-16 0 0 1.23101e-17 5.12071e-16 0 0 0 -2.56035e-16)
(2.4207e-13 0 0 1.81494e-17 -4.8414e-13 0 0 0 2.4207e-13)
(8.61699e-15 0 0 2.52602e-17 -1.7234e-14 0 0 0 8.61699e-15)
(3.61928e-13 0 0 -5.42058e-22 -7.23856e-13 0 0 0 3.61928e-13)
(2.11629e-13 0 0 -2.52618e-17 -4.23259e-13 0 0 0 2.11629e-13)
(3.55095e-13 0 0 -1.81532e-17 -7.10191e-13 0 0 0 3.55095e-13)
(-4.57396e-13 0 0 -1.23204e-17 9.14791e-13 0 0 0 -4.57396e-13)
(3.20412e-13 0 0 -7.83466e-18 -6.40824e-13 0 0 0 3.20412e-13)
(-3.22933e-12 0 0 -4.66401e-18 6.45866e-12 0 0 0 -3.22933e-12)
(9.08587e-12 0 0 -2.59916e-18 -1.81717e-11 0 0 0 9.08587e-12)
(-7.65572e-12 0 0 -1.35683e-18 1.53114e-11 0 0 0 -7.65572e-12)
(-3.2677e-12 0 0 -6.6425e-19 6.5354e-12 0 0 0 -3.2677e-12)
(-2.06885e-10 0 0 -3.05423e-19 4.13769e-10 0 0 0 -2.06885e-10)
(9.35068e-10 0 0 -1.32124e-19 -1.87014e-09 0 0 0 9.35068e-10)
(1.84945e-09 0 0 -5.3874e-20 -3.69889e-09 0 0 0 1.84945e-09)
(-1.83651e-08 0 0 -2.07452e-20 3.67302e-08 0 0 0 -1.83651e-08)
(-2.55385e-09 0 0 -7.55837e-21 5.1077e-09 0 0 0 -2.55385e-09)
(2.33912e-07 0 0 -2.6114e-21 -4.67823e-07 0 0 0 2.33912e-07)
(-2.45761e-08 0 0 -8.56734e-22 4.91521e-08 0 0 0 -2.45761e-08)
(-2.84329e-06 0 0 -2.66823e-22 5.68657e-06 0 0 0 -2.84329e-06)
(-2.31607e-06 0 0 -7.95757e-23 4.63215e-06 0 0 0 -2.31607e-06)
(5.90293e-05 0 0 -2.13339e-23 -0.000118059 0 0 0 5.90293e-05)
(2.24182e-05 0 0 -5.67503e-24 -4.48364e-05 0 0 0 2.24182e-05)
(-9.09392e-07 0 0 -1.34147e-26 1.81878e-06 0 0 0 -9.09392e-07)
(1.69273e-09 0 0 -2.75503e-29 -3.38547e-09 0 0 0 1.69273e-09)
(3.72777e-16 0 0 -1.60679e-35 -7.45554e-16 0 0 0 3.72777e-16)
(-1.19928e-20 0 0 -3.07207e-40 2.39856e-20 0 0 0 -1.19928e-20)
(-7.38063e-28 0 0 -2.72354e-46 1.47613e-27 0 0 0 -7.38063e-28)
(-4.12981e-35 0 0 -1.58106e-52 8.25962e-35 0 0 0 -4.12981e-35)
(2.22755e-41 0 0 -7.08067e-59 -4.45509e-41 0 0 0 2.22755e-41)
(2.32385e-48 0 0 -5.05681e-65 -4.64771e-48 0 0 0 2.32385e-48)
(-4.25551e-50 0 0 -1.25565e-66 8.51102e-50 0 0 0 -4.25551e-50)
(-4.21249e-52 0 0 -6.2309e-68 8.42498e-52 0 0 0 -4.21249e-52)
(8.45702e-54 0 0 -2.62462e-69 -1.6914e-53 0 0 0 8.45702e-54)
(-5.10667e-54 0 0 -9.06153e-71 1.02133e-53 0 0 0 -5.10667e-54)
(-3.61809e-55 0 0 -2.42343e-72 7.23619e-55 0 0 0 -3.61809e-55)
(-5.25698e-56 0 0 -4.52253e-74 1.0514e-55 0 0 0 -5.25698e-56)
(-5.25173e-55 0 0 -4.4912e-76 1.05035e-54 0 0 0 -5.25173e-55)
)
;

boundaryField
{
    inlet
    {
        type            cyclic;
    }
    outlet
    {
        type            cyclic;
    }
    top
    {
        type            extrapolatedCalculated;
        value           uniform (-1.04934e-54 0 0 -4.43515e-76 2.09869e-54 0 0 0 -1.04934e-54);
    }
    bottom
    {
        type            extrapolatedCalculated;
        value           uniform (0.00982093 0 0 -2.01221e-15 -0.0196419 0 0 0 0.00982093);
    }
    frontAndBackPlanes
    {
        type            empty;
    }
}


// ************************************************************************* //
