/*--------------------------------*- C++ -*----------------------------------*\
| =========                 |                                                 |
| \\      /  F ield         | OpenFOAM: The Open Source CFD Toolbox           |
|  \\    /   O peration     | Version:  v2006                                 |
|   \\  /    A nd           | Website:  www.openfoam.com                      |
|    \\/     M anipulation  |                                                 |
\*---------------------------------------------------------------------------*/
FoamFile
{
    version     2.0;
    format      ascii;
    class       volTensorField;
    location    "240";
    object      Taub;
}
// * * * * * * * * * * * * * * * * * * * * * * * * * * * * * * * * * * * * * //

dimensions      [1 -1 -2 0 0 0 0];


internalField   nonuniform List<tensor> 
120
(
(-7.01335e-07 0 0 -9.48199e-20 1.40267e-06 0 0 0 -7.01335e-07)
(-7.34583e-07 0 0 -9.06543e-20 1.46917e-06 0 0 0 -7.34583e-07)
(-7.84565e-07 0 0 -9.7305e-20 1.56913e-06 0 0 0 -7.84565e-07)
(-8.46289e-07 0 0 -1.03184e-19 1.69258e-06 0 0 0 -8.46289e-07)
(-9.23124e-07 0 0 -9.67181e-20 1.84625e-06 0 0 0 -9.23124e-07)
(-1.02212e-06 0 0 -7.30625e-20 2.04424e-06 0 0 0 -1.02212e-06)
(-1.15278e-06 0 0 -9.94517e-20 2.30555e-06 0 0 0 -1.15278e-06)
(-1.32722e-06 0 0 -1.54914e-19 2.65444e-06 0 0 0 -1.32722e-06)
(-1.55782e-06 0 0 -9.03526e-20 3.11563e-06 0 0 0 -1.55782e-06)
(-1.85352e-06 0 0 -4.59585e-20 3.70704e-06 0 0 0 -1.85352e-06)
(-2.1984e-06 0 0 -1.22814e-19 4.39681e-06 0 0 0 -2.1984e-06)
(-2.46267e-06 0 0 -5.535e-20 4.92533e-06 0 0 0 -2.46267e-06)
(-2.42815e-06 0 0 1.34624e-20 4.8563e-06 0 0 0 -2.42815e-06)
(-1.91058e-06 0 0 -2.96654e-20 3.82116e-06 0 0 0 -1.91058e-06)
(-1.08767e-06 0 0 -2.23759e-20 2.17534e-06 0 0 0 -1.08767e-06)
(-3.78749e-05 0 0 -2.31601e-19 7.57498e-05 0 0 0 -3.78749e-05)
(7.59023e-05 0 0 -3.89798e-17 -0.000151805 0 0 0 7.59023e-05)
(-8.64781e-05 0 0 -7.28468e-17 0.000172956 0 0 0 -8.64781e-05)
(-0.000173271 0 0 -9.20853e-17 0.000346542 0 0 0 -0.000173271)
(2.7491e-05 0 0 -1.48135e-16 -5.4982e-05 0 0 0 2.7491e-05)
(1.20855e-05 0 0 -2.26157e-16 -2.41711e-05 0 0 0 1.20855e-05)
(2.90518e-06 0 0 -3.18087e-16 -5.81036e-06 0 0 0 2.90518e-06)
(1.30553e-06 0 0 -4.10904e-16 -2.61106e-06 0 0 0 1.30553e-06)
(5.1933e-07 0 0 2.16263e-16 -1.03866e-06 0 0 0 5.1933e-07)
(1.85355e-07 0 0 8.86681e-16 -3.70711e-07 0 0 0 1.85355e-07)
(6.58393e-08 0 0 9.22164e-16 -1.31679e-07 0 0 0 6.58393e-08)
(2.25324e-08 0 0 6.87449e-16 -4.50648e-08 0 0 0 2.25324e-08)
(7.31892e-09 0 0 5.33485e-16 -1.46378e-08 0 0 0 7.31892e-09)
(2.33184e-09 0 0 7.94813e-16 -4.66367e-09 0 0 0 2.33184e-09)
(7.09079e-10 0 0 3.89541e-16 -1.41816e-09 0 0 0 7.09079e-10)
(2.65529e-10 0 0 -7.22237e-16 -5.31059e-10 0 0 0 2.65529e-10)
(6.80639e-11 0 0 -1.17914e-15 -1.36128e-10 0 0 0 6.80639e-11)
(-6.78734e-12 0 0 -1.01149e-15 1.35747e-11 0 0 0 -6.78734e-12)
(-7.52345e-11 0 0 -9.32252e-16 1.50469e-10 0 0 0 -7.52345e-11)
(-5.23503e-11 0 0 -9.31786e-16 1.04701e-10 0 0 0 -5.23503e-11)
(-5.08031e-11 -1.00962e-19 0 -2.80684e-16 1.01606e-10 0 0 0 -5.08031e-11)
(-2.43669e-11 0 0 1.06014e-15 4.87338e-11 0 0 0 -2.43669e-11)
(-2.32245e-11 0 0 1.02682e-15 4.6449e-11 0 0 0 -2.32245e-11)
(-5.3399e-12 0 0 1.04827e-15 1.06798e-11 0 0 0 -5.3399e-12)
(-1.69929e-11 0 0 4.34963e-16 3.39859e-11 0 0 0 -1.69929e-11)
(-2.49554e-11 0 0 -1.1667e-16 4.99108e-11 0 0 0 -2.49554e-11)
(-3.88638e-11 0 0 7.93364e-17 7.77275e-11 0 0 0 -3.88638e-11)
(-3.11764e-11 0 0 -3.97775e-16 6.23529e-11 0 0 0 -3.11764e-11)
(-2.75935e-11 0 0 -1.6657e-16 5.5187e-11 0 0 0 -2.75935e-11)
(-1.8084e-11 0 0 7.52835e-16 3.6168e-11 0 0 0 -1.8084e-11)
(-1.45125e-11 0 0 2.37632e-16 2.90249e-11 0 0 0 -1.45125e-11)
(-8.71062e-12 0 0 -1.031e-15 1.74212e-11 0 0 0 -8.71062e-12)
(-9.6005e-12 0 0 -1.66643e-15 1.9201e-11 0 0 0 -9.6005e-12)
(-1.05917e-11 0 0 -9.73731e-16 2.11833e-11 0 0 0 -1.05917e-11)
(-1.25896e-11 0 0 3.5197e-16 2.51793e-11 0 0 0 -1.25896e-11)
(-1.04494e-11 0 0 2.24767e-16 2.08988e-11 0 0 0 -1.04494e-11)
(-8.78895e-12 0 0 6.97246e-17 1.75779e-11 0 0 0 -8.78895e-12)
(-6.18619e-12 0 0 -8.61052e-17 1.23724e-11 0 0 0 -6.18619e-12)
(-4.67622e-12 0 0 -2.14821e-16 9.35244e-12 0 0 0 -4.67622e-12)
(-3.23312e-12 0 0 4.11017e-16 6.46623e-12 0 0 0 -3.23312e-12)
(-3.06609e-12 0 0 1.11277e-15 6.13218e-12 0 0 0 -3.06609e-12)
(-3.26442e-12 0 0 1.2024e-15 6.52885e-12 0 0 0 -3.26442e-12)
(-3.43305e-12 0 0 1.37946e-15 6.86609e-12 0 0 0 -3.43305e-12)
(-3.09585e-12 1.00962e-19 0 2.26193e-16 6.19171e-12 0 0 0 -3.09585e-12)
(-2.49469e-12 0 0 -8.83493e-16 4.98937e-12 0 0 0 -2.49469e-12)
(-2.1403e-12 0 0 -5.79985e-16 4.2806e-12 0 0 0 -2.1403e-12)
(-1.51602e-12 0 0 -2.93309e-16 3.03204e-12 0 0 0 -1.51602e-12)
(-1.61798e-12 0 0 -4.29903e-17 3.23597e-12 0 0 0 -1.61798e-12)
(-1.65236e-12 0 0 1.62907e-16 3.30473e-12 0 0 0 -1.65236e-12)
(-2.92656e-12 0 0 -1.0731e-15 5.85311e-12 0 0 0 -2.92656e-12)
(-2.74663e-12 0 0 -9.33065e-16 5.49327e-12 0 0 0 -2.74663e-12)
(-3.71616e-12 0 0 6.05766e-16 7.43232e-12 0 0 0 -3.71616e-12)
(-2.54374e-12 0 0 7.64979e-16 5.08747e-12 0 0 0 -2.54374e-12)
(-4.08595e-12 0 0 9.64521e-16 8.1719e-12 0 0 0 -4.08595e-12)
(-2.17304e-12 0 0 1.20954e-15 4.34608e-12 0 0 0 -2.17304e-12)
(-4.50165e-12 0 0 8.76681e-17 9.00331e-12 0 0 0 -4.50165e-12)
(-4.51173e-12 0 0 -1.02281e-15 9.02346e-12 0 0 0 -4.51173e-12)
(-1.1554e-11 0 0 -7.47685e-16 2.31081e-11 0 0 0 -1.1554e-11)
(-9.7314e-12 0 0 -5.10834e-16 1.94628e-11 0 0 0 -9.7314e-12)
(-1.44083e-11 0 0 -3.23699e-16 2.88167e-11 0 0 0 -1.44083e-11)
(-8.56595e-12 0 0 -1.85189e-16 1.71319e-11 0 0 0 -8.56595e-12)
(-1.64761e-11 0 0 -8.37841e-17 3.29522e-11 0 0 0 -1.64761e-11)
(-6.98999e-12 0 0 -6.47468e-19 1.398e-11 0 0 0 -6.98999e-12)
(-1.58151e-11 0 0 8.80362e-17 3.16303e-11 0 0 0 -1.58151e-11)
(-1.4747e-11 0 0 2.09751e-16 2.94939e-11 0 0 0 -1.4747e-11)
(-4.22981e-11 0 0 3.94094e-16 8.45963e-11 0 0 0 -4.22981e-11)
(-3.45452e-11 0 0 6.69167e-16 6.90904e-11 0 0 0 -3.45452e-11)
(-4.57359e-11 0 0 1.05502e-15 9.14718e-11 0 0 0 -4.57359e-11)
(-2.48664e-11 0 0 1.55547e-15 4.97329e-11 0 0 0 -2.48664e-11)
(-4.67528e-11 0 0 2.15177e-15 9.35056e-11 0 0 0 -4.67528e-11)
(-1.59237e-11 0 0 -4.56873e-20 3.18474e-11 0 0 0 -1.59237e-11)
(-3.32257e-11 0 0 -2.15191e-15 6.64515e-11 0 0 0 -3.32257e-11)
(-2.55625e-11 0 0 -1.5558e-15 5.11251e-11 0 0 0 -2.55625e-11)
(-1.05451e-10 0 0 -1.0559e-15 2.10901e-10 0 0 0 -1.05451e-10)
(-3.44543e-11 0 0 -6.71463e-16 6.89086e-11 0 0 0 -3.44543e-11)
(-3.51999e-10 0 0 -3.99726e-16 7.03998e-10 0 0 0 -3.51999e-10)
(7.66467e-10 0 0 -2.2276e-16 -1.53293e-09 0 0 0 7.66467e-10)
(-8.00761e-10 0 0 -1.16287e-16 1.60152e-09 0 0 0 -8.00761e-10)
(-5.02881e-11 0 0 -5.69297e-17 1.00576e-10 0 0 0 -5.02881e-11)
(-1.8124e-08 0 0 -2.61764e-17 3.6248e-08 0 0 0 -1.8124e-08)
(7.97208e-08 0 0 -1.13238e-17 -1.59442e-07 0 0 0 7.97208e-08)
(1.63844e-07 0 0 -4.61735e-18 -3.27687e-07 0 0 0 1.63844e-07)
(-1.59863e-06 0 0 -1.778e-18 3.19727e-06 0 0 0 -1.59863e-06)
(-1.62198e-07 0 0 -6.47823e-19 3.24397e-07 0 0 0 -1.62198e-07)
(2.01019e-05 0 0 -2.2381e-19 -4.02037e-05 0 0 0 2.01019e-05)
(-2.81047e-06 0 0 -7.34153e-20 5.62095e-06 0 0 0 -2.81047e-06)
(-0.000239001 0 0 -2.28891e-20 0.000478003 0 0 0 -0.000239001)
(-0.000219092 0 0 -6.80193e-21 0.000438184 0 0 0 -0.000219092)
(0.00514234 0 0 -1.87708e-21 -0.0102847 0 0 0 0.00514234)
(0.000227081 0 0 -4.84304e-22 -0.000454162 0 0 0 0.000227081)
(-0.00268103 0 0 -1.78067e-23 0.00536206 0 0 0 -0.00268103)
(2.90227e-05 0 0 -2.03998e-23 -5.80453e-05 0 0 0 2.90227e-05)
(0.000394592 0 0 -1.66676e-23 -0.000789183 0 0 0 0.000394592)
(1.39977e-05 0 0 -1.34908e-23 -2.79954e-05 0 0 0 1.39977e-05)
(-3.03007e-05 0 0 -1.09659e-23 6.06014e-05 0 0 0 -3.03007e-05)
(-2.32358e-06 0 0 -8.95773e-24 4.64716e-06 0 0 0 -2.32358e-06)
(2.27617e-06 0 0 -7.36083e-24 -4.55234e-06 0 0 0 2.27617e-06)
(2.74044e-07 0 0 -6.09315e-24 -5.48087e-07 0 0 0 2.74044e-07)
(-1.67085e-07 0 0 -5.09114e-24 3.3417e-07 0 0 0 -1.67085e-07)
(-2.84041e-08 0 0 -4.30586e-24 5.68082e-08 0 0 0 -2.84041e-08)
(1.18766e-08 0 0 -3.69987e-24 -2.37533e-08 0 0 0 1.18766e-08)
(2.74966e-09 0 0 -3.24499e-24 -5.49931e-09 0 0 0 2.74966e-09)
(-9.01456e-10 0 0 -2.92051e-24 1.80291e-09 0 0 0 -9.01456e-10)
(-3.48799e-10 0 0 -2.7119e-24 6.97599e-10 0 0 0 -3.48799e-10)
(1.63488e-09 0 0 -2.60269e-24 -3.26976e-09 0 0 0 1.63488e-09)
)
;

boundaryField
{
    inlet
    {
        type            cyclic;
    }
    outlet
    {
        type            cyclic;
    }
    top
    {
        type            extrapolatedCalculated;
        value           uniform (3.22966e-09 0 0 -2.57028e-24 -6.45933e-09 0 0 0 3.22966e-09);
    }
    bottom
    {
        type            extrapolatedCalculated;
        value           uniform (-6.90178e-07 0 0 -9.51057e-20 1.38036e-06 0 0 0 -6.90178e-07);
    }
    frontAndBackPlanes
    {
        type            empty;
    }
}


// ************************************************************************* //
