/*--------------------------------*- C++ -*----------------------------------*\
| =========                 |                                                 |
| \\      /  F ield         | OpenFOAM: The Open Source CFD Toolbox           |
|  \\    /   O peration     | Version:  v2006                                 |
|   \\  /    A nd           | Website:  www.openfoam.com                      |
|    \\/     M anipulation  |                                                 |
\*---------------------------------------------------------------------------*/
FoamFile
{
    version     2.0;
    format      ascii;
    class       volVectorField;
    location    "240";
    object      Ua;
}
// * * * * * * * * * * * * * * * * * * * * * * * * * * * * * * * * * * * * * //

dimensions      [0 1 -1 0 0 0 0];


internalField   nonuniform List<vector> 
120
(
(-4.79096e-22 -7.01494e-09 0)
(-1.43183e-21 -2.15845e-08 0)
(-2.37199e-21 -3.73079e-08 0)
(-3.39367e-21 -5.42312e-08 0)
(-4.38735e-21 -7.25595e-08 0)
(-5.34656e-21 -9.2677e-08 0)
(-6.2663e-21 -1.15148e-07 0)
(-7.35185e-21 -1.40745e-07 0)
(-8.39319e-21 -1.70477e-07 0)
(-9.176e-21 -2.0578e-07 0)
(-9.91568e-21 -2.49053e-07 0)
(-1.06107e-20 -3.02369e-07 0)
(-1.10366e-20 -3.62194e-07 0)
(-1.13912e-20 -4.17469e-07 0)
(-1.16433e-20 -4.5508e-07 0)
(-1.18232e-20 -4.84163e-07 0)
(-1.20773e-20 -5.41895e-07 0)
(-8.14293e-19 -1.40405e-05 0)
(-1.5802e-18 -3.07592e-06 0)
(-2.83396e-18 -5.03687e-06 0)
(-4.85556e-18 -6.02552e-06 0)
(-7.85038e-18 -6.28179e-06 0)
(-1.19199e-17 -6.38864e-06 0)
(-1.70532e-17 -6.43074e-06 0)
(-7.11396e-18 -6.44574e-06 0)
(2.72546e-18 -6.451e-06 0)
(1.34173e-17 -6.4528e-06 0)
(1.80039e-17 -6.45337e-06 0)
(2.52375e-17 -6.45356e-06 0)
(3.57415e-17 -6.4536e-06 0)
(3.3968e-17 -6.45363e-06 0)
(1.96169e-17 -6.45363e-06 0)
(7.68871e-18 -6.45363e-06 0)
(-2.86351e-18 -6.45363e-06 0)
(-1.30305e-17 -6.45363e-06 0)
(-2.36453e-17 -6.45363e-06 0)
(-1.93416e-17 -6.45363e-06 0)
(6.20339e-20 -6.45363e-06 0)
(3.4795e-18 -6.45363e-06 0)
(2.34327e-17 -6.45363e-06 0)
(1.31465e-17 -6.45364e-06 0)
(2.07668e-17 -6.45364e-06 0)
(1.49826e-17 -6.45364e-06 0)
(1.18534e-17 -6.45364e-06 0)
(1.12077e-17 -6.45364e-06 0)
(2.87309e-17 -6.45364e-06 0)
(1.6562e-17 -6.45364e-06 0)
(5.74407e-18 -6.45364e-06 0)
(-2.062e-17 -6.45364e-06 0)
(-1.59699e-17 -6.45364e-06 0)
(-1.26516e-17 -6.45364e-06 0)
(-1.09744e-17 -6.45364e-06 0)
(-1.1102e-17 -6.45364e-06 0)
(-1.28882e-17 -6.45364e-06 0)
(-1.59493e-17 -6.45364e-06 0)
(-3.75338e-18 -6.45364e-06 0)
(8.85473e-18 -6.45364e-06 0)
(2.29699e-17 -6.45364e-06 0)
(3.9659e-17 -6.45364e-06 0)
(2.7997e-17 -6.45364e-06 0)
(1.98776e-17 -6.45364e-06 0)
(1.51069e-17 -6.45364e-06 0)
(1.33588e-17 -6.45364e-06 0)
(1.41515e-17 -6.45364e-06 0)
(1.71252e-17 -6.45364e-06 0)
(-9.84405e-18 -6.45364e-06 0)
(-3.75794e-18 -6.45364e-06 0)
(3.76487e-18 -6.45364e-06 0)
(1.32437e-17 -6.45364e-06 0)
(2.52013e-17 -6.45364e-06 0)
(4.02716e-17 -6.45364e-06 0)
(2.71497e-17 -6.45364e-06 0)
(1.73938e-17 -6.45365e-06 0)
(1.05325e-17 -6.45364e-06 0)
(6.04058e-18 -6.45365e-06 0)
(3.33831e-18 -6.45364e-06 0)
(1.92479e-18 -6.45365e-06 0)
(1.47622e-18 -6.45365e-06 0)
(1.9104e-18 -6.45365e-06 0)
(3.4328e-18 -6.45365e-06 0)
(6.57205e-18 -6.45365e-06 0)
(1.21915e-17 -6.45365e-06 0)
(2.14442e-17 -6.45365e-06 0)
(3.56392e-17 -6.45365e-06 0)
(5.60146e-17 -6.45365e-06 0)
(8.37539e-17 -6.45365e-06 0)
(5.60135e-17 -6.45365e-06 0)
(3.56362e-17 -6.45365e-06 0)
(2.14359e-17 -6.45365e-06 0)
(1.21688e-17 -6.45364e-06 0)
(6.51273e-18 -6.45366e-06 0)
(3.285e-18 -6.45363e-06 0)
(1.56195e-18 -6.45371e-06 0)
(7.00568e-19 -6.45358e-06 0)
(2.96708e-19 -6.45369e-06 0)
(1.1881e-19 -6.4524e-06 0)
(4.50436e-20 -6.45903e-06 0)
(1.61932e-20 -6.46297e-06 0)
(5.52935e-21 -6.35409e-06 0)
(1.79553e-21 -6.44837e-06 0)
(5.55595e-22 -7.69064e-06 0)
(1.64348e-22 -6.308e-06 0)
(4.63555e-23 8.58886e-06 0)
(1.36969e-23 6.8462e-06 0)
(3.29165e-24 -0.000348875 0)
(2.99263e-24 -0.000120009 0)
(2.43468e-24 -0.000174591 0)
(1.9731e-24 -0.000307933 0)
(1.60006e-24 -0.000232681 0)
(1.29792e-24 -0.000228859 0)
(1.05172e-24 -0.000228223 0)
(8.49994e-25 -0.000228508 0)
(6.83647e-25 -0.00022857 0)
(5.45309e-25 -0.00022855 0)
(4.29066e-25 -0.000228544 0)
(3.29997e-25 -0.000228546 0)
(2.44054e-25 -0.000228546 0)
(1.67734e-25 -0.000228518 0)
(9.80097e-26 -0.000228481 0)
(3.21285e-26 -0.000228045 0)
)
;

boundaryField
{
    inlet
    {
        type            cyclic;
    }
    outlet
    {
        type            cyclic;
    }
    top
    {
        type            fixedValue;
        value           uniform (0 0 0);
    }
    bottom
    {
        type            fixedValue;
        value           uniform (0 0 0);
    }
    frontAndBackPlanes
    {
        type            empty;
    }
}


// ************************************************************************* //
