/*--------------------------------*- C++ -*----------------------------------*\
| =========                 |                                                 |
| \\      /  F ield         | OpenFOAM: The Open Source CFD Toolbox           |
|  \\    /   O peration     | Version:  v2006                                 |
|   \\  /    A nd           | Website:  www.openfoam.com                      |
|    \\/     M anipulation  |                                                 |
\*---------------------------------------------------------------------------*/
FoamFile
{
    version     2.0;
    format      ascii;
    class       volVectorField;
    location    "240";
    object      Ub;
}
// * * * * * * * * * * * * * * * * * * * * * * * * * * * * * * * * * * * * * //

dimensions      [0 1 -1 0 0 0 0];


internalField   nonuniform List<vector> 
120
(
(-4.79094e-22 1.04303e-08 0)
(-1.43153e-21 3.19653e-08 0)
(-2.30629e-21 5.48484e-08 0)
(-3.39337e-21 7.942e-08 0)
(-4.38733e-21 1.06053e-07 0)
(-5.34469e-21 1.35293e-07 0)
(-5.86195e-21 1.67941e-07 0)
(-7.35275e-21 2.05121e-07 0)
(-8.9913e-21 2.48373e-07 0)
(-9.17885e-21 2.99575e-07 0)
(-9.9207e-21 3.60822e-07 0)
(-1.16641e-20 4.33039e-07 0)
(-1.10417e-20 5.1045e-07 0)
(-1.13912e-20 5.80707e-07 0)
(-1.16437e-20 6.26767e-07 0)
(-1.18459e-20 6.47009e-07 0)
(-1.63604e-20 2.9408e-06 0)
(-8.14422e-19 -4.04137e-06 0)
(-1.58022e-18 8.51028e-06 0)
(-2.83399e-18 7.3589e-06 0)
(-4.85559e-18 6.68674e-06 0)
(-7.85042e-18 6.55469e-06 0)
(-1.192e-17 6.49318e-06 0)
(-1.69804e-17 6.46766e-06 0)
(-7.11396e-18 6.45855e-06 0)
(2.72548e-18 6.45531e-06 0)
(1.33809e-17 6.45416e-06 0)
(1.8004e-17 6.4538e-06 0)
(2.52376e-17 6.45368e-06 0)
(3.56687e-17 6.45365e-06 0)
(3.38952e-17 6.45363e-06 0)
(1.9617e-17 6.45363e-06 0)
(7.68877e-18 6.45362e-06 0)
(-2.86349e-18 6.45363e-06 0)
(-1.30305e-17 6.45363e-06 0)
(-2.35724e-17 6.45363e-06 0)
(-1.92687e-17 6.45363e-06 0)
(-1.08539e-20 6.45364e-06 0)
(3.5524e-18 6.45363e-06 0)
(2.3287e-17 6.45364e-06 0)
(1.32195e-17 6.45364e-06 0)
(2.0694e-17 6.45364e-06 0)
(1.49827e-17 6.45364e-06 0)
(1.18535e-17 6.45364e-06 0)
(1.12807e-17 6.45364e-06 0)
(2.85852e-17 6.45364e-06 0)
(1.65621e-17 6.45364e-06 0)
(5.67121e-18 6.45364e-06 0)
(-2.04742e-17 6.45364e-06 0)
(-1.597e-17 6.45364e-06 0)
(-1.26517e-17 6.45364e-06 0)
(-1.09745e-17 6.45364e-06 0)
(-1.11021e-17 6.45364e-06 0)
(-1.28882e-17 6.45364e-06 0)
(-1.58765e-17 6.45364e-06 0)
(-3.75336e-18 6.45364e-06 0)
(8.85479e-18 6.45364e-06 0)
(2.297e-17 6.45364e-06 0)
(3.95133e-17 6.45364e-06 0)
(2.79971e-17 6.45364e-06 0)
(1.98777e-17 6.45364e-06 0)
(1.5107e-17 6.45364e-06 0)
(1.33589e-17 6.45364e-06 0)
(1.41515e-17 6.45364e-06 0)
(1.69795e-17 6.45364e-06 0)
(-9.69821e-18 6.45364e-06 0)
(-3.75786e-18 6.45364e-06 0)
(3.76495e-18 6.45364e-06 0)
(1.32438e-17 6.45364e-06 0)
(2.52014e-17 6.45364e-06 0)
(4.01259e-17 6.45364e-06 0)
(2.71499e-17 6.45364e-06 0)
(1.73939e-17 6.45364e-06 0)
(1.05326e-17 6.45365e-06 0)
(6.04065e-18 6.45365e-06 0)
(3.33836e-18 6.45365e-06 0)
(1.92483e-18 6.45365e-06 0)
(1.47626e-18 6.45365e-06 0)
(1.91044e-18 6.45365e-06 0)
(3.43286e-18 6.45365e-06 0)
(6.57215e-18 6.45365e-06 0)
(1.21916e-17 6.45365e-06 0)
(2.14444e-17 6.45365e-06 0)
(3.56394e-17 6.45365e-06 0)
(5.60148e-17 6.45365e-06 0)
(8.34626e-17 6.45366e-06 0)
(5.60138e-17 6.45365e-06 0)
(3.56365e-17 6.45366e-06 0)
(2.14361e-17 6.45365e-06 0)
(1.2169e-17 6.45367e-06 0)
(6.51283e-18 6.45366e-06 0)
(3.28506e-18 6.45369e-06 0)
(1.56198e-18 6.45361e-06 0)
(7.00586e-19 6.45374e-06 0)
(2.96717e-19 6.45361e-06 0)
(1.18815e-19 6.45495e-06 0)
(4.50454e-20 6.44829e-06 0)
(1.61939e-20 6.44403e-06 0)
(5.52962e-21 6.55488e-06 0)
(1.79563e-21 6.45484e-06 0)
(5.55629e-22 5.21464e-06 0)
(1.64358e-22 6.64219e-06 0)
(4.6359e-23 2.11676e-05 0)
(1.36978e-23 2.12006e-05 0)
(3.29206e-24 -0.000332784 0)
(2.99265e-24 6.14233e-06 0)
(2.4336e-24 5.49687e-05 0)
(1.9726e-24 1.78867e-06 0)
(1.60012e-24 -4.2275e-06 0)
(1.29797e-24 -3.11248e-07 0)
(1.05176e-24 3.18173e-07 0)
(8.5003e-25 3.73319e-08 0)
(6.83668e-25 -2.32953e-08 0)
(5.45334e-25 -3.77985e-09 0)
(4.29079e-25 1.77062e-09 0)
(3.30014e-25 4.81301e-10 0)
(2.44062e-25 -1.11005e-11 0)
(1.67744e-25 6.88011e-11 0)
(9.80184e-26 1.24135e-10 0)
(3.21325e-26 1.21128e-10 0)
)
;

boundaryField
{
    inlet
    {
        type            cyclic;
    }
    outlet
    {
        type            cyclic;
    }
    top
    {
        type            fixedValue;
        value           uniform (0 0 0);
    }
    bottom
    {
        type            fixedValue;
        value           uniform (0 0 0);
    }
    frontAndBackPlanes
    {
        type            empty;
    }
}


// ************************************************************************* //
