/*--------------------------------*- C++ -*----------------------------------*\
| =========                 |                                                 |
| \\      /  F ield         | OpenFOAM: The Open Source CFD Toolbox           |
|  \\    /   O peration     | Version:  2206                                  |
|   \\  /    A nd           | Website:  www.openfoam.com                      |
|    \\/     M anipulation  |                                                 |
\*---------------------------------------------------------------------------*/
FoamFile
{
    version     2.0;
    format      ascii;
    arch        "LSB;label=32;scalar=64";
    class       volScalarField;
    location    "120";
    object      nuEffb;
}
// * * * * * * * * * * * * * * * * * * * * * * * * * * * * * * * * * * * * * //

dimensions      [0 2 -1 0 0 0 0];

internalField   nonuniform List<scalar> 
120
(
0.000127017
0.000126561
0.000126434
0.000125884
0.000125434
0.000124828
0.000124447
0.00012417
0.000110491
0.000101451
9.70357e-05
9.55082e-05
9.49641e-05
9.47938e-05
9.47439e-05
9.47299e-05
9.47262e-05
9.47253e-05
9.47251e-05
9.4725e-05
9.4725e-05
9.4725e-05
9.4725e-05
9.4725e-05
9.4725e-05
9.4725e-05
9.4725e-05
9.4725e-05
9.4725e-05
9.4725e-05
9.4725e-05
9.4725e-05
9.4725e-05
9.4725e-05
9.4725e-05
9.4725e-05
9.4725e-05
9.4725e-05
9.4725e-05
9.4725e-05
9.4725e-05
9.4725e-05
9.4725e-05
9.4725e-05
9.4725e-05
9.4725e-05
9.4725e-05
9.4725e-05
9.4725e-05
9.4725e-05
9.4725e-05
9.4725e-05
9.4725e-05
9.4725e-05
9.4725e-05
9.4725e-05
9.4725e-05
9.4725e-05
9.4725e-05
9.4725e-05
9.4725e-05
9.4725e-05
9.4725e-05
9.4725e-05
9.4725e-05
9.4725e-05
9.4725e-05
9.4725e-05
9.4725e-05
9.4725e-05
9.4725e-05
9.4725e-05
9.4725e-05
9.4725e-05
9.4725e-05
9.4725e-05
9.4725e-05
9.4725e-05
9.4725e-05
9.4725e-05
9.4725e-05
9.4725e-05
9.4725e-05
9.4725e-05
9.4725e-05
9.4725e-05
9.4725e-05
9.4725e-05
9.4725e-05
9.4725e-05
9.4725e-05
9.4725e-05
9.4725e-05
9.4725e-05
9.4725e-05
9.4725e-05
9.4725e-05
9.4725e-05
9.47251e-05
9.47249e-05
9.47234e-05
9.47105e-05
9.48396e-05
9.4671e-05
9.27935e-05
0.000103224
4.52434e-05
2.10781e-05
2.10523e-05
2.10503e-05
2.105e-05
2.105e-05
2.105e-05
2.105e-05
2.105e-05
2.105e-05
2.105e-05
2.105e-05
2.105e-05
2.105e-05
)
;

boundaryField
{
    inlet
    {
        type            cyclic;
    }
    outlet
    {
        type            cyclic;
    }
    top
    {
        type            calculated;
        value           uniform 2.105e-05;
    }
    bottom
    {
        type            calculated;
        value           uniform 0.000127017;
    }
    frontAndBackPlanes
    {
        type            empty;
    }
}


// ************************************************************************* //
