/*--------------------------------*- C++ -*----------------------------------*\
| =========                 |                                                 |
| \\      /  F ield         | OpenFOAM: The Open Source CFD Toolbox           |
|  \\    /   O peration     | Version:  2206                                  |
|   \\  /    A nd           | Website:  www.openfoam.com                      |
|    \\/     M anipulation  |                                                 |
\*---------------------------------------------------------------------------*/
FoamFile
{
    version     2.0;
    format      ascii;
    arch        "LSB;label=32;scalar=64";
    class       volScalarField;
    location    "120";
    object      p_rbgh;
}
// * * * * * * * * * * * * * * * * * * * * * * * * * * * * * * * * * * * * * //

dimensions      [1 -1 -2 0 0 0 0];

internalField   nonuniform List<scalar> 
120
(
24.2205
24.2173
24.2098
24.197
24.1776
24.1476
24.1043
24.0537
24.0105
23.7796
23.5261
23.278
23.0321
22.7867
22.5414
22.2961
22.0508
21.8056
21.5603
21.3151
21.0698
20.8246
20.5793
20.3341
20.0888
19.8436
19.5983
19.3531
19.1078
18.8626
18.6173
18.3721
18.1268
17.8816
17.6363
17.3911
17.1458
16.9006
16.6553
16.4101
16.1648
15.9196
15.6743
15.4291
15.1838
14.9386
14.6933
14.4481
14.2028
13.9576
13.7123
13.4671
13.2218
12.9766
12.7313
12.4861
12.2408
11.9956
11.7503
11.5051
11.2598
11.0146
10.7693
10.5241
10.2788
10.0336
9.78834
9.54309
9.29784
9.05259
8.80734
8.56209
8.31684
8.07159
7.82634
7.58109
7.33584
7.09059
6.84534
6.60009
6.35484
6.10959
5.86434
5.61909
5.37384
5.12859
4.88334
4.63809
4.39284
4.14759
3.90234
3.65709
3.41184
3.16659
2.92134
2.67609
2.43084
2.18559
1.94034
1.69509
1.44983
1.20456
0.959442
0.714924
0.46672
0.198735
0.0324792
-0.000217875
-0.00215046
-0.000269796
0.000125149
3.69225e-05
-4.43746e-06
-3.33319e-06
-8.66341e-08
2.62547e-07
6.55611e-08
1.14134e-08
1.6399e-08
1.36029e-08
)
;

boundaryField
{
    inlet
    {
        type            cyclic;
    }
    outlet
    {
        type            cyclic;
    }
    top
    {
        type            fixedValue;
        value           uniform 0;
    }
    bottom
    {
        type            fixedFluxPressure;
        gradient        uniform 0;
        value           uniform 24.2205;
    }
    frontAndBackPlanes
    {
        type            empty;
    }
}


// ************************************************************************* //
