/*--------------------------------*- C++ -*----------------------------------*\
| =========                 |                                                 |
| \\      /  F ield         | OpenFOAM: The Open Source CFD Toolbox           |
|  \\    /   O peration     | Version:  2206                                  |
|   \\  /    A nd           | Website:  www.openfoam.com                      |
|    \\/     M anipulation  |                                                 |
\*---------------------------------------------------------------------------*/
FoamFile
{
    version     2.0;
    format      ascii;
    arch        "LSB;label=32;scalar=64";
    class       surfaceScalarField;
    location    "120";
    object      phi.a;
}
// * * * * * * * * * * * * * * * * * * * * * * * * * * * * * * * * * * * * * //

dimensions      [0 3 -1 0 0 0 0];

oriented        oriented;

internalField   nonuniform List<scalar> 
119
(
-9.5347e-15
-2.21957e-14
-3.81207e-14
-5.87422e-14
-9.21853e-14
-1.35555e-13
-1.61156e-13
-1.7706e-13
-1.40139e-12
-1.98479e-12
-2.19944e-12
-2.28372e-12
-2.31147e-12
-2.31991e-12
-2.32238e-12
-2.32307e-12
-2.32325e-12
-2.32329e-12
-2.32331e-12
-2.32331e-12
-2.32331e-12
-2.32331e-12
-2.32331e-12
-2.32331e-12
-2.32331e-12
-2.32331e-12
-2.32331e-12
-2.32331e-12
-2.32331e-12
-2.32331e-12
-2.32331e-12
-2.32331e-12
-2.32331e-12
-2.32331e-12
-2.32331e-12
-2.32331e-12
-2.32331e-12
-2.32331e-12
-2.32331e-12
-2.32331e-12
-2.32331e-12
-2.32331e-12
-2.32331e-12
-2.32331e-12
-2.32331e-12
-2.32331e-12
-2.32331e-12
-2.32331e-12
-2.32331e-12
-2.32331e-12
-2.32331e-12
-2.32331e-12
-2.32331e-12
-2.32331e-12
-2.32331e-12
-2.32331e-12
-2.32331e-12
-2.32331e-12
-2.32331e-12
-2.32331e-12
-2.32331e-12
-2.32331e-12
-2.32331e-12
-2.32331e-12
-2.32331e-12
-2.32331e-12
-2.32331e-12
-2.32331e-12
-2.32331e-12
-2.32331e-12
-2.32331e-12
-2.32331e-12
-2.32331e-12
-2.32331e-12
-2.32331e-12
-2.32331e-12
-2.32331e-12
-2.32331e-12
-2.32331e-12
-2.32331e-12
-2.32331e-12
-2.32331e-12
-2.32331e-12
-2.32331e-12
-2.32331e-12
-2.32331e-12
-2.32331e-12
-2.32331e-12
-2.32331e-12
-2.32331e-12
-2.32331e-12
-2.32331e-12
-2.32331e-12
-2.32331e-12
-2.32331e-12
-2.32331e-12
-2.32331e-12
-2.32331e-12
-2.32331e-12
-2.32331e-12
-2.32368e-12
-2.3212e-12
-2.32807e-12
-2.36214e-12
-1.94594e-12
-8.43806e-12
-5.23685e-11
-8.53496e-11
-7.89978e-11
-8.00395e-11
-8.10826e-11
-8.18374e-11
-8.22287e-11
-8.23656e-11
-8.23971e-11
-8.24014e-11
-8.24014e-11
-8.23939e-11
-8.19176e-11
)
;

boundaryField
{
    inlet
    {
        type            cyclic;
        value           nonuniform List<scalar> 
120
(
-7.21684e-29
-2.03042e-28
-2.92622e-28
-2.53254e-28
2.3605e-28
2.46974e-27
7.80149e-27
1.15849e-26
1.30891e-26
6.15817e-25
6.90041e-25
1.03856e-24
5.54698e-25
3.34919e-25
2.60132e-25
2.55218e-25
2.79093e-25
3.07017e-25
3.37488e-25
3.75579e-25
4.21412e-25
4.70473e-25
5.17426e-25
5.54337e-25
-1.14333e-27
-5.79768e-25
-1.18503e-24
-1.53489e-24
-1.92222e-24
-2.34977e-24
-2.24206e-24
-1.60021e-24
-1.0021e-24
-4.48937e-25
6.05101e-26
5.25623e-25
3.69524e-25
-4.05223e-25
-6.46484e-25
-1.50018e-24
-1.24275e-24
-1.59788e-24
-1.41715e-24
-1.2731e-24
-1.16727e-24
-1.66828e-24
-1.04429e-24
-4.38634e-25
7.21092e-25
7.1104e-25
6.8382e-25
6.44677e-25
5.93085e-25
5.26531e-25
4.38661e-25
-2.52389e-25
-9.77866e-25
-1.74358e-24
-2.55367e-24
-2.2639e-24
-2.03298e-24
-1.87105e-24
-1.78309e-24
-1.77296e-24
-1.83958e-24
-8.37188e-25
-1.07078e-24
-1.39343e-24
-1.80169e-24
-2.29575e-24
-2.87174e-24
-2.37793e-24
-1.96636e-24
-1.64162e-24
-1.40494e-24
-1.25841e-24
-1.20525e-24
-1.24998e-24
-1.39844e-24
-1.65768e-24
-2.03559e-24
-2.54044e-24
-3.18014e-24
-3.96161e-24
-4.88993e-24
-5.95985e-24
-4.86769e-24
-3.91393e-24
-3.10039e-24
-2.41828e-24
-1.85656e-24
-1.40263e-24
-1.0431e-24
-7.6453e-25
-5.54025e-25
-3.99812e-25
-2.91075e-25
-2.20246e-25
-1.5498e-25
-6.43068e-26
-2.20638e-26
-6.49974e-27
-1.81905e-27
-4.82373e-28
-1.22141e-28
-2.96043e-29
-2.12134e-29
-1.78025e-29
-1.28036e-29
-6.14979e-30
-3.14102e-30
-1.53302e-30
-5.24233e-31
-1.22441e-31
-2.09539e-32
-4.96523e-33
-4.52447e-33
-4.44907e-33
-4.63925e-33
-8.63917e-33
)
;
    }
    outlet
    {
        type            cyclic;
        value           nonuniform List<scalar> 
120
(
7.21684e-29
2.03042e-28
2.92622e-28
2.53254e-28
-2.3605e-28
-2.46974e-27
-7.80149e-27
-1.15849e-26
-1.30891e-26
-6.15817e-25
-6.90041e-25
-1.03856e-24
-5.54698e-25
-3.34919e-25
-2.60132e-25
-2.55218e-25
-2.79093e-25
-3.07017e-25
-3.37488e-25
-3.75579e-25
-4.21412e-25
-4.70473e-25
-5.17426e-25
-5.54337e-25
1.14333e-27
5.79768e-25
1.18503e-24
1.53489e-24
1.92222e-24
2.34977e-24
2.24206e-24
1.60021e-24
1.0021e-24
4.48937e-25
-6.05101e-26
-5.25623e-25
-3.69524e-25
4.05223e-25
6.46484e-25
1.50018e-24
1.24275e-24
1.59788e-24
1.41715e-24
1.2731e-24
1.16727e-24
1.66828e-24
1.04429e-24
4.38634e-25
-7.21092e-25
-7.1104e-25
-6.8382e-25
-6.44677e-25
-5.93085e-25
-5.26531e-25
-4.38661e-25
2.52389e-25
9.77866e-25
1.74358e-24
2.55367e-24
2.2639e-24
2.03298e-24
1.87105e-24
1.78309e-24
1.77296e-24
1.83958e-24
8.37188e-25
1.07078e-24
1.39343e-24
1.80169e-24
2.29575e-24
2.87174e-24
2.37793e-24
1.96636e-24
1.64162e-24
1.40494e-24
1.25841e-24
1.20525e-24
1.24998e-24
1.39844e-24
1.65768e-24
2.03559e-24
2.54044e-24
3.18014e-24
3.96161e-24
4.88993e-24
5.95985e-24
4.86769e-24
3.91393e-24
3.10039e-24
2.41828e-24
1.85656e-24
1.40263e-24
1.0431e-24
7.6453e-25
5.54025e-25
3.99812e-25
2.91075e-25
2.20246e-25
1.5498e-25
6.43068e-26
2.20638e-26
6.49974e-27
1.81905e-27
4.82373e-28
1.22141e-28
2.96043e-29
2.12134e-29
1.78025e-29
1.28036e-29
6.14979e-30
3.14102e-30
1.53302e-30
5.24233e-31
1.22441e-31
2.09539e-32
4.96523e-33
4.52447e-33
4.44907e-33
4.63925e-33
8.63917e-33
)
;
    }
    top
    {
        type            fixedValue;
        value           uniform 0;
    }
    bottom
    {
        type            fixedValue;
        value           uniform 0;
    }
    frontAndBackPlanes
    {
        type            empty;
        value           nonuniform List<scalar> 0();
    }
}


// ************************************************************************* //
