/*--------------------------------*- C++ -*----------------------------------*\
| =========                 |                                                 |
| \\      /  F ield         | OpenFOAM: The Open Source CFD Toolbox           |
|  \\    /   O peration     | Version:  2206                                  |
|   \\  /    A nd           | Website:  www.openfoam.com                      |
|    \\/     M anipulation  |                                                 |
\*---------------------------------------------------------------------------*/
FoamFile
{
    version     2.0;
    format      ascii;
    arch        "LSB;label=32;scalar=64";
    class       surfaceScalarField;
    location    "120";
    object      phi.b;
}
// * * * * * * * * * * * * * * * * * * * * * * * * * * * * * * * * * * * * * //

dimensions      [0 3 -1 0 0 0 0];

oriented        oriented;

internalField   nonuniform List<scalar> 
119
(
1.36845e-14
3.17681e-14
5.43855e-14
8.34065e-14
1.3023e-13
1.90592e-13
2.25868e-13
2.30725e-13
1.61285e-12
2.10565e-12
2.2455e-12
2.29955e-12
2.3163e-12
2.32129e-12
2.32276e-12
2.32317e-12
2.32327e-12
2.3233e-12
2.32331e-12
2.32331e-12
2.32331e-12
2.32331e-12
2.32331e-12
2.32331e-12
2.32331e-12
2.32331e-12
2.32331e-12
2.32331e-12
2.32331e-12
2.32331e-12
2.32331e-12
2.32331e-12
2.32331e-12
2.32331e-12
2.32331e-12
2.32331e-12
2.32331e-12
2.32331e-12
2.32331e-12
2.32331e-12
2.32331e-12
2.32331e-12
2.32331e-12
2.32331e-12
2.32331e-12
2.32331e-12
2.32331e-12
2.32331e-12
2.32331e-12
2.32331e-12
2.32331e-12
2.32331e-12
2.32331e-12
2.32331e-12
2.32331e-12
2.32331e-12
2.32331e-12
2.32331e-12
2.32331e-12
2.32331e-12
2.32331e-12
2.32331e-12
2.32331e-12
2.32331e-12
2.32331e-12
2.32331e-12
2.32331e-12
2.32331e-12
2.32331e-12
2.32331e-12
2.32331e-12
2.32331e-12
2.32331e-12
2.32331e-12
2.32331e-12
2.32331e-12
2.32331e-12
2.32331e-12
2.32331e-12
2.32331e-12
2.32331e-12
2.32331e-12
2.32331e-12
2.32331e-12
2.32331e-12
2.32331e-12
2.32331e-12
2.32331e-12
2.32331e-12
2.32331e-12
2.32331e-12
2.32331e-12
2.32331e-12
2.32331e-12
2.32331e-12
2.32331e-12
2.32331e-12
2.32331e-12
2.32331e-12
2.32328e-12
2.32343e-12
2.32278e-12
2.32902e-12
2.33011e-12
2.0279e-12
5.3324e-12
7.39873e-12
1.76044e-14
1.41047e-15
1.97108e-16
2.36139e-17
2.91692e-17
3.4984e-17
4.11377e-17
4.2305e-17
4.8379e-17
5.04767e-17
5.47246e-17
5.47214e-17
)
;

boundaryField
{
    inlet
    {
        type            cyclic;
        value           nonuniform List<scalar> 
120
(
-7.21691e-29
-2.0325e-28
-3.36303e-28
-2.53418e-28
2.38147e-28
2.47182e-27
7.36737e-27
1.16141e-26
1.88451e-26
6.158e-25
6.90049e-25
1.03319e-24
5.54738e-25
3.3497e-25
2.60168e-25
2.55173e-25
2.78882e-25
3.06868e-25
3.37434e-25
3.75575e-25
4.21412e-25
4.70475e-25
5.17562e-25
5.70942e-25
-1.00745e-27
-5.79834e-25
-1.19334e-24
-1.53495e-24
-1.92235e-24
-2.36651e-24
-2.2588e-24
-1.60034e-24
-1.0021e-24
-4.48935e-25
6.06492e-26
5.42364e-25
3.8613e-25
-4.21556e-25
-6.30283e-25
-1.53312e-24
-1.22655e-24
-1.61435e-24
-1.41728e-24
-1.27296e-24
-1.15094e-24
-1.70135e-24
-1.04469e-24
-4.54969e-25
7.54165e-25
7.1131e-25
6.83823e-25
6.44677e-25
5.93087e-25
5.26667e-25
4.55266e-25
-2.52253e-25
-9.77866e-25
-1.74386e-24
-2.58688e-24
-2.26417e-24
-2.03298e-24
-1.87104e-24
-1.78309e-24
-1.77322e-24
-1.87251e-24
-8.04248e-25
-1.07051e-24
-1.39343e-24
-1.80169e-24
-2.29602e-24
-2.90494e-24
-2.3782e-24
-1.96636e-24
-1.64162e-24
-1.40494e-24
-1.25841e-24
-1.20525e-24
-1.24997e-24
-1.39844e-24
-1.65767e-24
-2.03559e-24
-2.54043e-24
-3.18014e-24
-3.96161e-24
-4.89046e-24
-6.02626e-24
-4.86823e-24
-3.91393e-24
-3.10039e-24
-2.41828e-24
-1.85656e-24
-1.40262e-24
-1.0431e-24
-7.64528e-25
-5.54023e-25
-3.99804e-25
-2.91071e-25
-2.19961e-25
-1.54106e-25
-6.41907e-26
-2.19928e-26
-6.49858e-27
-1.81907e-27
-4.82408e-28
-1.22151e-28
-2.96065e-29
-2.12155e-29
-1.78524e-29
-1.39173e-29
-1.07931e-29
-8.32791e-30
-6.3909e-30
-4.87357e-30
-3.68624e-30
-2.75539e-30
-2.02095e-30
-1.43367e-30
-9.52702e-31
-5.4339e-31
-1.75364e-31
)
;
    }
    outlet
    {
        type            cyclic;
        value           nonuniform List<scalar> 
120
(
7.21691e-29
2.0325e-28
3.36303e-28
2.53418e-28
-2.38147e-28
-2.47182e-27
-7.36737e-27
-1.16141e-26
-1.88451e-26
-6.158e-25
-6.90049e-25
-1.03319e-24
-5.54738e-25
-3.3497e-25
-2.60168e-25
-2.55173e-25
-2.78882e-25
-3.06868e-25
-3.37434e-25
-3.75575e-25
-4.21412e-25
-4.70475e-25
-5.17562e-25
-5.70942e-25
1.00745e-27
5.79834e-25
1.19334e-24
1.53495e-24
1.92235e-24
2.36651e-24
2.2588e-24
1.60034e-24
1.0021e-24
4.48935e-25
-6.06492e-26
-5.42364e-25
-3.8613e-25
4.21556e-25
6.30283e-25
1.53312e-24
1.22655e-24
1.61435e-24
1.41728e-24
1.27296e-24
1.15094e-24
1.70135e-24
1.04469e-24
4.54969e-25
-7.54165e-25
-7.1131e-25
-6.83823e-25
-6.44677e-25
-5.93087e-25
-5.26667e-25
-4.55266e-25
2.52253e-25
9.77866e-25
1.74386e-24
2.58688e-24
2.26417e-24
2.03298e-24
1.87104e-24
1.78309e-24
1.77322e-24
1.87251e-24
8.04248e-25
1.07051e-24
1.39343e-24
1.80169e-24
2.29602e-24
2.90494e-24
2.3782e-24
1.96636e-24
1.64162e-24
1.40494e-24
1.25841e-24
1.20525e-24
1.24997e-24
1.39844e-24
1.65767e-24
2.03559e-24
2.54043e-24
3.18014e-24
3.96161e-24
4.89046e-24
6.02626e-24
4.86823e-24
3.91393e-24
3.10039e-24
2.41828e-24
1.85656e-24
1.40262e-24
1.0431e-24
7.64528e-25
5.54023e-25
3.99804e-25
2.91071e-25
2.19961e-25
1.54106e-25
6.41907e-26
2.19928e-26
6.49858e-27
1.81907e-27
4.82408e-28
1.22151e-28
2.96065e-29
2.12155e-29
1.78524e-29
1.39173e-29
1.07931e-29
8.32791e-30
6.3909e-30
4.87357e-30
3.68624e-30
2.75539e-30
2.02095e-30
1.43367e-30
9.52702e-31
5.4339e-31
1.75364e-31
)
;
    }
    top
    {
        type            fixedValue;
        value           uniform 0;
    }
    bottom
    {
        type            fixedValue;
        value           uniform 0;
    }
    frontAndBackPlanes
    {
        type            empty;
        value           nonuniform List<scalar> 0();
    }
}


// ************************************************************************* //
