/*--------------------------------*- C++ -*----------------------------------*\
| =========                 |                                                 |
| \\      /  F ield         | OpenFOAM: The Open Source CFD Toolbox           |
|  \\    /   O peration     | Version:  2206                                  |
|   \\  /    A nd           | Website:  www.openfoam.com                      |
|    \\/     M anipulation  |                                                 |
\*---------------------------------------------------------------------------*/
FoamFile
{
    version     2.0;
    format      ascii;
    arch        "LSB;label=32;scalar=64";
    class       volVectorField;
    location    "120";
    object      U.a;
}
// * * * * * * * * * * * * * * * * * * * * * * * * * * * * * * * * * * * * * //

dimensions      [0 1 -1 0 0 0 0];

internalField   nonuniform List<vector> 
120
(
(2.40561e-22 8.89872e-10 0)
(6.76806e-22 -3.80504e-08 0)
(9.75407e-22 -8.51901e-08 0)
(8.44179e-22 -1.26502e-07 0)
(-7.86835e-22 -1.995e-07 0)
(-8.23247e-21 -3.11811e-07 0)
(-2.6005e-20 -4.42053e-07 0)
(-3.86163e-20 -4.54703e-07 0)
(-4.36302e-20 -4.34562e-07 0)
(-2.05272e-18 -1.85372e-05 0)
(-2.30014e-18 -3.56163e-06 0)
(-3.46188e-18 -5.42043e-06 0)
(-1.84899e-18 -6.21013e-06 0)
(-1.1164e-18 -6.3868e-06 0)
(-8.67105e-19 -6.43387e-06 0)
(-8.50728e-19 -6.44885e-06 0)
(-9.30309e-19 -6.45273e-06 0)
(-1.02339e-18 -6.45347e-06 0)
(-1.12496e-18 -6.45361e-06 0)
(-1.25193e-18 -6.45364e-06 0)
(-1.40471e-18 -6.45364e-06 0)
(-1.56824e-18 -6.45364e-06 0)
(-1.72475e-18 -6.45364e-06 0)
(-1.84779e-18 -6.45364e-06 0)
(3.81111e-21 -6.45364e-06 0)
(1.93256e-18 -6.45364e-06 0)
(3.95012e-18 -6.45364e-06 0)
(5.11629e-18 -6.45364e-06 0)
(6.40739e-18 -6.45364e-06 0)
(7.83256e-18 -6.45364e-06 0)
(7.47353e-18 -6.45364e-06 0)
(5.33402e-18 -6.45364e-06 0)
(3.34033e-18 -6.45364e-06 0)
(1.49646e-18 -6.45364e-06 0)
(-2.017e-19 -6.45364e-06 0)
(-1.75208e-18 -6.45364e-06 0)
(-1.23175e-18 -6.45364e-06 0)
(1.35074e-18 -6.45364e-06 0)
(2.15495e-18 -6.45364e-06 0)
(5.0006e-18 -6.45364e-06 0)
(4.14249e-18 -6.45364e-06 0)
(5.32627e-18 -6.45365e-06 0)
(4.72383e-18 -6.45365e-06 0)
(4.24365e-18 -6.45364e-06 0)
(3.89091e-18 -6.45365e-06 0)
(5.56093e-18 -6.45364e-06 0)
(3.48096e-18 -6.45365e-06 0)
(1.46211e-18 -6.45365e-06 0)
(-2.40364e-18 -6.45364e-06 0)
(-2.37013e-18 -6.45364e-06 0)
(-2.2794e-18 -6.45365e-06 0)
(-2.14892e-18 -6.45364e-06 0)
(-1.97695e-18 -6.45364e-06 0)
(-1.7551e-18 -6.45364e-06 0)
(-1.4622e-18 -6.45364e-06 0)
(8.41298e-19 -6.45364e-06 0)
(3.25955e-18 -6.45364e-06 0)
(5.81195e-18 -6.45364e-06 0)
(8.51224e-18 -6.45364e-06 0)
(7.54635e-18 -6.45364e-06 0)
(6.7766e-18 -6.45364e-06 0)
(6.23682e-18 -6.45364e-06 0)
(5.94364e-18 -6.45364e-06 0)
(5.90986e-18 -6.45364e-06 0)
(6.13193e-18 -6.45364e-06 0)
(2.79063e-18 -6.45364e-06 0)
(3.56928e-18 -6.45364e-06 0)
(4.64478e-18 -6.45364e-06 0)
(6.00564e-18 -6.45364e-06 0)
(7.65251e-18 -6.45364e-06 0)
(9.57245e-18 -6.45364e-06 0)
(7.92643e-18 -6.45364e-06 0)
(6.55455e-18 -6.45364e-06 0)
(5.47208e-18 -6.45364e-06 0)
(4.68314e-18 -6.45364e-06 0)
(4.19471e-18 -6.45364e-06 0)
(4.0175e-18 -6.45364e-06 0)
(4.16659e-18 -6.45364e-06 0)
(4.66146e-18 -6.45364e-06 0)
(5.52559e-18 -6.45364e-06 0)
(6.78531e-18 -6.45364e-06 0)
(8.46812e-18 -6.45364e-06 0)
(1.06005e-17 -6.45364e-06 0)
(1.32054e-17 -6.45364e-06 0)
(1.62998e-17 -6.45364e-06 0)
(1.98662e-17 -6.45364e-06 0)
(1.62256e-17 -6.45364e-06 0)
(1.30464e-17 -6.45364e-06 0)
(1.03346e-17 -6.45364e-06 0)
(8.06095e-18 -6.45364e-06 0)
(6.18853e-18 -6.45364e-06 0)
(4.67542e-18 -6.45364e-06 0)
(3.47701e-18 -6.45364e-06 0)
(2.54843e-18 -6.45365e-06 0)
(1.84675e-18 -6.45364e-06 0)
(1.33271e-18 -6.45364e-06 0)
(9.70249e-19 -6.45366e-06 0)
(7.34155e-19 -6.45375e-06 0)
(5.16602e-19 -6.45366e-06 0)
(2.14356e-19 -6.44569e-06 0)
(7.3546e-20 -6.44412e-06 0)
(2.16658e-20 -6.6097e-06 0)
(6.06351e-21 -7.1462e-06 0)
(1.60791e-21 -1.61035e-06 0)
(4.07138e-22 1.01847e-05 0)
(9.86808e-23 -0.000122422 0)
(7.07115e-23 -0.000244443 0)
(5.93416e-23 -0.000191519 0)
(4.26787e-23 -0.000205678 0)
(2.04993e-23 -0.000220956 0)
(1.04701e-23 -0.000223931 0)
(5.11006e-24 -0.000226544 0)
(1.74744e-24 -0.000228109 0)
(4.08136e-25 -0.000228717 0)
(6.98464e-26 -0.000228869 0)
(1.65508e-26 -0.000228893 0)
(1.50816e-26 -0.000228893 0)
(1.48302e-26 -0.000228893 0)
(1.54642e-26 -0.000228851 0)
(2.87972e-26 -0.000226246 0)
)
;

boundaryField
{
    inlet
    {
        type            cyclic;
    }
    outlet
    {
        type            cyclic;
    }
    top
    {
        type            fixedValue;
        value           uniform (0 0 0);
    }
    bottom
    {
        type            fixedValue;
        value           uniform (0 0 0);
    }
    frontAndBackPlanes
    {
        type            empty;
    }
}


// ************************************************************************* //
