/*--------------------------------*- C++ -*----------------------------------*\
| =========                 |                                                 |
| \\      /  F ield         | OpenFOAM: The Open Source CFD Toolbox           |
|  \\    /   O peration     | Version:  2206                                  |
|   \\  /    A nd           | Website:  www.openfoam.com                      |
|    \\/     M anipulation  |                                                 |
\*---------------------------------------------------------------------------*/
FoamFile
{
    version     2.0;
    format      ascii;
    arch        "LSB;label=32;scalar=64";
    class       volVectorField;
    location    "120";
    object      U.b;
}
// * * * * * * * * * * * * * * * * * * * * * * * * * * * * * * * * * * * * * //

dimensions      [0 1 -1 0 0 0 0];

internalField   nonuniform List<vector> 
120
(
(2.40564e-22 3.27001e-08 0)
(6.77499e-22 6.91044e-08 0)
(1.12101e-21 1.17355e-07 0)
(8.44728e-22 1.98906e-07 0)
(-7.93824e-22 3.05317e-07 0)
(-8.23939e-21 4.50012e-07 0)
(-2.45579e-20 5.46826e-07 0)
(-3.87138e-20 5.52809e-07 0)
(-6.28171e-20 3.78906e-06 0)
(-2.05267e-18 -7.20218e-06 0)
(-2.30016e-18 8.45442e-06 0)
(-3.44397e-18 7.18236e-06 0)
(-1.84913e-18 6.6085e-06 0)
(-1.11657e-18 6.49519e-06 0)
(-8.67226e-19 6.46643e-06 0)
(-8.50576e-19 6.45666e-06 0)
(-9.29605e-19 6.45412e-06 0)
(-1.02289e-18 6.4537e-06 0)
(-1.12478e-18 6.45364e-06 0)
(-1.25192e-18 6.45364e-06 0)
(-1.40471e-18 6.45365e-06 0)
(-1.56825e-18 6.45364e-06 0)
(-1.72521e-18 6.45364e-06 0)
(-1.90314e-18 6.45364e-06 0)
(3.35816e-21 6.45364e-06 0)
(1.93278e-18 6.45364e-06 0)
(3.97779e-18 6.45364e-06 0)
(5.11651e-18 6.45365e-06 0)
(6.40785e-18 6.45364e-06 0)
(7.88835e-18 6.45364e-06 0)
(7.52933e-18 6.45364e-06 0)
(5.33447e-18 6.45364e-06 0)
(3.34033e-18 6.45364e-06 0)
(1.49645e-18 6.45365e-06 0)
(-2.02164e-19 6.45364e-06 0)
(-1.80788e-18 6.45364e-06 0)
(-1.2871e-18 6.45364e-06 0)
(1.40519e-18 6.45364e-06 0)
(2.10094e-18 6.45364e-06 0)
(5.11039e-18 6.45364e-06 0)
(4.08849e-18 6.45364e-06 0)
(5.38117e-18 6.45364e-06 0)
(4.72428e-18 6.45364e-06 0)
(4.24321e-18 6.45364e-06 0)
(3.83646e-18 6.45364e-06 0)
(5.67117e-18 6.45364e-06 0)
(3.4823e-18 6.45364e-06 0)
(1.51656e-18 6.45364e-06 0)
(-2.51388e-18 6.45364e-06 0)
(-2.37103e-18 6.45364e-06 0)
(-2.27941e-18 6.45364e-06 0)
(-2.14892e-18 6.45364e-06 0)
(-1.97696e-18 6.45364e-06 0)
(-1.75556e-18 6.45364e-06 0)
(-1.51755e-18 6.45364e-06 0)
(8.40842e-19 6.45364e-06 0)
(3.25955e-18 6.45364e-06 0)
(5.81286e-18 6.45364e-06 0)
(8.62293e-18 6.45364e-06 0)
(7.54724e-18 6.45364e-06 0)
(6.7766e-18 6.45364e-06 0)
(6.23682e-18 6.45364e-06 0)
(5.94364e-18 6.45364e-06 0)
(5.91075e-18 6.45364e-06 0)
(6.24171e-18 6.45364e-06 0)
(2.68083e-18 6.45365e-06 0)
(3.56838e-18 6.45365e-06 0)
(4.64477e-18 6.45364e-06 0)
(6.00564e-18 6.45364e-06 0)
(7.65341e-18 6.45364e-06 0)
(9.68314e-18 6.45365e-06 0)
(7.92732e-18 6.45365e-06 0)
(6.55455e-18 6.45365e-06 0)
(5.47207e-18 6.45365e-06 0)
(4.68314e-18 6.45364e-06 0)
(4.1947e-18 6.45364e-06 0)
(4.01749e-18 6.45365e-06 0)
(4.16658e-18 6.45365e-06 0)
(4.66145e-18 6.45365e-06 0)
(5.52558e-18 6.45364e-06 0)
(6.7853e-18 6.45364e-06 0)
(8.4681e-18 6.45364e-06 0)
(1.06005e-17 6.45364e-06 0)
(1.32054e-17 6.45364e-06 0)
(1.63015e-17 6.45364e-06 0)
(2.00875e-17 6.45364e-06 0)
(1.62274e-17 6.45364e-06 0)
(1.30464e-17 6.45364e-06 0)
(1.03346e-17 6.45364e-06 0)
(8.06094e-18 6.45364e-06 0)
(6.18852e-18 6.45364e-06 0)
(4.67542e-18 6.45364e-06 0)
(3.477e-18 6.45364e-06 0)
(2.54843e-18 6.45364e-06 0)
(1.84674e-18 6.45365e-06 0)
(1.33268e-18 6.45365e-06 0)
(9.70235e-19 6.45362e-06 0)
(7.33202e-19 6.45354e-06 0)
(5.13686e-19 6.45359e-06 0)
(2.13969e-19 6.46156e-06 0)
(7.33092e-20 6.46299e-06 0)
(2.16619e-20 6.30438e-06 0)
(6.06357e-21 5.7513e-06 0)
(1.60803e-21 1.12552e-05 0)
(4.0717e-22 2.29561e-05 0)
(9.86883e-23 -0.00011041 0)
(7.07185e-23 -0.00016994 0)
(5.95082e-23 6.18891e-05 0)
(4.63911e-23 2.10324e-05 0)
(3.59771e-23 -1.81745e-06 0)
(2.77597e-23 -1.81554e-06 0)
(2.1303e-23 -1.05951e-07 0)
(1.62452e-23 1.22074e-07 0)
(1.22875e-23 2.43055e-08 0)
(9.18463e-24 -5.80582e-09 0)
(6.73649e-24 -2.48336e-09 0)
(4.77891e-24 2.29576e-10 0)
(3.17567e-24 3.59104e-10 0)
(1.8113e-24 1.91571e-10 0)
(5.84546e-25 1.52923e-10 0)
)
;

boundaryField
{
    inlet
    {
        type            cyclic;
    }
    outlet
    {
        type            cyclic;
    }
    top
    {
        type            fixedValue;
        value           uniform (0 0 0);
    }
    bottom
    {
        type            fixedValue;
        value           uniform (0 0 0);
    }
    frontAndBackPlanes
    {
        type            empty;
    }
}


// ************************************************************************* //
