/*--------------------------------*- C++ -*----------------------------------*\
| =========                 |                                                 |
| \\      /  F ield         | OpenFOAM: The Open Source CFD Toolbox           |
|  \\    /   O peration     | Version:  2206                                  |
|   \\  /    A nd           | Website:  www.openfoam.com                      |
|    \\/     M anipulation  |                                                 |
\*---------------------------------------------------------------------------*/
FoamFile
{
    version     2.0;
    format      ascii;
    arch        "LSB;label=32;scalar=64";
    class       volScalarField;
    location    "1.8";
    object      alpha.a;
}
// * * * * * * * * * * * * * * * * * * * * * * * * * * * * * * * * * * * * * //

dimensions      [0 0 0 0 0 0 0];

internalField   nonuniform List<scalar> 
13078
(
0.5211263
0.5631318
0.5807493
0.5810852
0.5805451
0.5798229
0.5789738
0.5670012
0.5807814
0.5817396
0.5812234
0.5805835
0.5798489
0.5789961
0.5825135
0.5824956
0.5819561
0.5813239
0.5806449
0.5798896
0.5790277
0.5833752
0.5826871
0.5820501
0.5814039
0.5807038
0.5799326
0.5790627
0.5834353
0.582746
0.5821085
0.5814503
0.5807518
0.5799731
0.5790971
0.5834002
0.5827538
0.5821349
0.5814798
0.5807773
0.5800067
0.5791293
0.5833641
0.5827457
0.5821456
0.5814979
0.580795
0.5800226
0.5791569
0.5833382
0.5827338
0.5821492
0.581507
0.5808051
0.5800337
0.579168
0.5833199
0.5827229
0.5821465
0.5815094
0.5808105
0.5800409
0.5791761
0.5833068
0.5827139
0.5821425
0.5815096
0.5808133
0.5800456
0.5791818
0.5832972
0.5827067
0.5821386
0.5815086
0.5808146
0.5800486
0.5791862
0.5832895
0.5827013
0.5821352
0.5815073
0.580815
0.5800507
0.5791897
0.5832835
0.5826967
0.5821322
0.5815059
0.5808151
0.5800523
0.5791925
0.5832785
0.5826929
0.5821296
0.5815048
0.5808153
0.5800536
0.5791951
0.5832742
0.5826898
0.5821276
0.5815075
0.5808208
0.5800554
0.5791975
0.5832704
0.582687
0.5821261
0.5815113
0.5808248
0.580057
0.5792
0.5832668
0.5826843
0.5821243
0.581511
0.5808253
0.5800584
0.5792025
0.5832633
0.5826819
0.5821227
0.5815105
0.5808259
0.5800598
0.5792051
0.5832598
0.5826795
0.5821213
0.5815101
0.5808267
0.5800619
0.5792078
0.5832563
0.5826772
0.5821199
0.5815103
0.5808332
0.5800718
0.5792115
0.5832526
0.5826747
0.5821185
0.5815105
0.5808409
0.5800796
0.5792154
0.5832486
0.582672
0.5821169
0.5815101
0.5808427
0.5800823
0.5792187
0.5832443
0.5826693
0.5821153
0.5815099
0.5808439
0.5800854
0.5792233
0.5832396
0.5826661
0.5821136
0.5815097
0.580846
0.5800964
0.5792393
0.5832342
0.5826626
0.5821115
0.5815095
0.5808482
0.5801093
0.5792522
0.5832283
0.5826587
0.5821093
0.5815092
0.5808499
0.5801144
0.5792585
0.5832214
0.5826542
0.5821068
0.581509
0.5808518
0.5801188
0.5792657
0.5832137
0.5826493
0.5821041
0.5815086
0.5808542
0.5801243
0.5792843
0.5832049
0.5826435
0.5821009
0.5815083
0.5808568
0.5801304
0.5793061
0.5831966
0.5826388
0.582098
0.5815081
0.5808594
0.5801359
0.5793168
0.5831866
0.582633
0.5820946
0.5815079
0.5808625
0.580142
0.579327
0.5831746
0.5826287
0.5820959
0.5815089
0.5808658
0.5801485
0.5793375
0.5831618
0.5826246
0.5820999
0.5815182
0.5808726
0.580158
0.5793495
0.5831492
0.5826207
0.5821065
0.5815292
0.5808884
0.5801799
0.5793742
0.5831398
0.5826245
0.5821264
0.5815718
0.5809476
0.5802377
0.5794293
0.5831406
0.5826531
0.5821895
0.5816749
0.5810741
0.5803625
0.5795258
0.5831663
0.5827398
0.5823333
0.581851
0.5812634
0.580506
0.5796178
0.5832461
0.5829188
0.5825625
0.5820758
0.5814525
0.580638
0.5796344
0.5834152
0.5831808
0.5828305
0.5822978
0.5816019
0.5807304
0.5795551
0.5837014
0.5834908
0.5830955
0.582501
0.5817221
0.5807491
0.5794386
0.5840958
0.5838137
0.5833924
0.5827086
0.5818622
0.5808148
0.5794262
0.5845958
0.5841462
0.5836979
0.5830092
0.5821135
0.5809936
0.5794121
0.5851639
0.5845004
0.584024
0.5833883
0.5825676
0.5812094
0.5793723
0.5857324
0.5847956
0.5843971
0.58383
0.5829205
0.5813801
0.57927
0.5861817
0.5850329
0.5847349
0.5841524
0.5830476
0.5814151
0.5794079
0.586426
0.5852307
0.5849452
0.5841857
0.5829919
0.5813999
0.5794743
0.5866266
0.5854436
0.5848883
0.5839702
0.5827738
0.5812543
0.5795513
0.5869711
0.5856305
0.5847892
0.5836768
0.582515
0.5810741
0.5793946
0.5873319
0.5857303
0.5847222
0.583475
0.5822263
0.5807761
0.5791251
0.5876005
0.5858007
0.5846683
0.583279
0.5818871
0.5803249
0.5787509
0.5877054
0.5858904
0.5846498
0.5829977
0.5814465
0.5797819
0.5781609
0.587646
0.5858859
0.5845157
0.5827368
0.5810629
0.5793754
0.5775731
0.5874868
0.5858049
0.5842692
0.5824374
0.5807128
0.5790489
0.5771762
0.5873039
0.5857186
0.5841133
0.5821954
0.5804249
0.5787265
0.577038
0.5871155
0.5856187
0.5839699
0.5820189
0.5802447
0.5785744
0.5769275
0.5869359
0.5855362
0.5838887
0.5819495
0.5801768
0.5785278
0.5768944
0.5868832
0.5855106
0.5838916
0.5819767
0.5802198
0.5785735
0.5769294
0.5869484
0.5855298
0.5839661
0.5820952
0.5803632
0.5787046
0.5770687
0.5869963
0.5855328
0.5840661
0.5822849
0.5805888
0.5789312
0.5773195
0.5870125
0.585504
0.5841551
0.5825034
0.5808993
0.5792943
0.5775718
0.5870032
0.5854599
0.5843042
0.5827148
0.5811919
0.579568
0.5778697
0.5869296
0.5853717
0.5843419
0.5828585
0.5814466
0.5798556
0.578289
0.5867084
0.5852218
0.5843235
0.5830849
0.5817671
0.5802333
0.5786398
0.586371
0.5851522
0.5844265
0.5833108
0.5820377
0.5804838
0.5787787
0.5860005
0.5851043
0.5845732
0.5835401
0.582233
0.5805494
0.5787491
0.585735
0.5849854
0.5846367
0.583716
0.582313
0.5804969
0.5786714
0.5855495
0.5847892
0.5845323
0.583726
0.5823319
0.5805549
0.5786267
0.5852497
0.5845173
0.5841805
0.5835341
0.5823298
0.5806227
0.5787206
0.5848105
0.5842167
0.5838109
0.5832082
0.5822125
0.5807193
0.5787924
0.5843544
0.5839193
0.5834676
0.5828396
0.5819952
0.5806883
0.5789774
0.5839429
0.5836313
0.58319
0.5825511
0.5817326
0.5806405
0.5791377
0.5836047
0.5833748
0.5829672
0.5823435
0.5815728
0.5806108
0.5793461
0.583361
0.5831192
0.5827456
0.5821962
0.5814897
0.5806147
0.579436
0.5832103
0.5828887
0.5825256
0.5820242
0.581387
0.5806039
0.5795429
0.5831401
0.5827266
0.5823239
0.5818385
0.5812467
0.5805005
0.5795856
0.5831179
0.5826424
0.5821862
0.5816772
0.5810837
0.5803651
0.5795266
0.5831195
0.5826129
0.5821214
0.5815812
0.5809628
0.5802548
0.5794426
0.5831313
0.5826094
0.582102
0.5815363
0.5809029
0.580189
0.5793854
0.5831461
0.5826148
0.5820987
0.5815187
0.5808748
0.5801641
0.5793592
0.5831609
0.5826225
0.5820971
0.5815147
0.580869
0.5801545
0.579347
0.5831755
0.5826282
0.5820948
0.5815077
0.580865
0.5801483
0.5793379
0.5831881
0.5826336
0.5820946
0.5815078
0.5808626
0.5801426
0.5793282
0.5831982
0.58264
0.5820987
0.5815087
0.5808603
0.580137
0.5793184
0.5832066
0.5826449
0.582102
0.5815094
0.5808579
0.5801318
0.579308
0.5832154
0.5826508
0.5821054
0.58151
0.5808556
0.580126
0.5792863
0.583223
0.5826558
0.5821083
0.5815103
0.5808534
0.5801205
0.5792676
0.5832297
0.5826602
0.5821108
0.5815105
0.5808514
0.5801161
0.5792602
0.5832355
0.5826639
0.5821128
0.5815107
0.5808496
0.5801108
0.5792537
0.5832407
0.5826672
0.5821146
0.5815109
0.5808472
0.5800976
0.5792406
0.5832453
0.5826702
0.5821163
0.5815109
0.580845
0.5800866
0.5792244
0.5832494
0.5826728
0.5821177
0.581511
0.5808437
0.5800833
0.5792198
0.5832531
0.5826753
0.5821192
0.5815111
0.5808416
0.5800804
0.5792162
0.5832566
0.5826776
0.5821203
0.5815106
0.5808335
0.5800723
0.579212
0.5832599
0.5826797
0.5821214
0.5815102
0.5808269
0.5800621
0.5792081
0.5832631
0.5826818
0.5821226
0.5815105
0.580826
0.58006
0.5792054
0.5832662
0.5826839
0.5821239
0.5815108
0.5808253
0.5800585
0.5792028
0.5832694
0.5826861
0.5821254
0.5815108
0.5808246
0.5800571
0.5792002
0.5832727
0.5826884
0.5821266
0.5815068
0.5808204
0.5800555
0.5791978
0.5832762
0.582691
0.5821281
0.5815039
0.5808149
0.5800536
0.5791955
0.5832803
0.582694
0.5821302
0.5815048
0.5808147
0.5800525
0.5791932
0.583285
0.5826978
0.5821328
0.5815061
0.5808148
0.5800513
0.5791909
0.583291
0.5827023
0.5821357
0.5815074
0.5808147
0.5800499
0.5791882
0.5832984
0.5827077
0.5821391
0.5815087
0.5808143
0.5800479
0.5791849
0.583308
0.5827147
0.5821429
0.5815096
0.5808131
0.580045
0.5791807
0.5833208
0.5827237
0.5821466
0.5815096
0.5808106
0.5800404
0.5791748
0.5833388
0.5827344
0.5821466
0.5815052
0.580805
0.5800331
0.5791666
0.5833645
0.5827463
0.5821442
0.5814956
0.5807945
0.5800222
0.5791424
0.5834003
0.5827549
0.5821359
0.5814804
0.5807785
0.5799947
0.5791136
0.5834352
0.5827474
0.58211
0.5814536
0.5807422
0.5799603
0.5790819
0.5833767
0.5826892
0.5820583
0.5813968
0.5806938
0.5799207
0.5790474
0.5825605
0.5825198
0.5819509
0.5813177
0.5806366
0.5798778
0.5790123
0.5679883
0.5811034
0.5818218
0.5812214
0.5805708
0.5798336
0.5789782
0.577967
0.5767038
0.5750202
0.5734207
0.5705798
0.5661263
0.5559865
0.5779905
0.576733
0.5750569
0.5734634
0.5706319
0.5661986
0.5564103
0.5780195
0.5767648
0.5750976
0.5729096
0.570682
0.5662685
0.5566386
0.578051
0.5767977
0.5751338
0.5735589
0.5707347
0.5663389
0.556847
0.5780824
0.5768315
0.5751736
0.5736054
0.5707877
0.5664092
0.5569972
0.5781131
0.5768655
0.5752139
0.5736526
0.57084
0.5664791
0.5571403
0.5781423
0.5768986
0.5752535
0.5736977
0.5708556
0.5665487
0.5572768
0.578168
0.5769307
0.5752923
0.5737416
0.57087
0.5666177
0.5574077
0.5781768
0.5769596
0.575329
0.5737857
0.5709121
0.5666797
0.5575356
0.5781836
0.5769686
0.5753627
0.5738294
0.5709534
0.5667415
0.5576589
0.578189
0.5769754
0.5753726
0.5738714
0.5709946
0.5668033
0.5577786
0.5781937
0.5769816
0.5753803
0.5738808
0.5710359
0.5668652
0.5578954
0.5781978
0.5769875
0.5753879
0.5738896
0.5710435
0.5669285
0.5580084
0.5782017
0.5769931
0.5753956
0.5738986
0.571052
0.5669411
0.5581064
0.5782055
0.5769989
0.5754035
0.5739079
0.5710611
0.566956
0.5580758
0.5782094
0.5770049
0.5754116
0.5739177
0.571071
0.5669722
0.5580513
0.5782133
0.577011
0.5754199
0.5739282
0.5710865
0.5669892
0.5580361
0.5782174
0.5770172
0.5754288
0.5739436
0.5712057
0.5670075
0.5580044
0.5782217
0.5770235
0.575438
0.5739551
0.5712248
0.5670264
0.5579776
0.5782262
0.5770301
0.5754476
0.5739673
0.5712399
0.5670463
0.5579437
0.5782309
0.577037
0.5754576
0.5739801
0.5712556
0.5670672
0.5578898
0.5782361
0.5770443
0.5754678
0.5739938
0.5712721
0.5670892
0.557849
0.5782414
0.5770521
0.5754789
0.5740061
0.5712937
0.5671121
0.5578045
0.5782486
0.5770606
0.575492
0.5734593
0.5714133
0.5671473
0.5577605
0.5782559
0.5770692
0.5755034
0.5740356
0.5714726
0.567176
0.5577153
0.5782629
0.5770785
0.5755165
0.5740551
0.5714969
0.5672034
0.5576666
0.5782725
0.5770899
0.5755318
0.5740741
0.5715216
0.5672357
0.5576075
0.5782991
0.5771026
0.5755461
0.5740931
0.5715545
0.5674765
0.5575488
0.5783181
0.5774416
0.5759836
0.5741073
0.5715852
0.567571
0.557501
0.578332
0.5774534
0.5760013
0.5741292
0.5716146
0.567611
0.5574503
0.5783689
0.5774951
0.5760188
0.5741518
0.5716467
0.5677854
0.557404
0.5783951
0.5775369
0.5760368
0.5741768
0.5716827
0.5679889
0.5573645
0.5784122
0.5775997
0.576061
0.5742032
0.571722
0.5680506
0.5574041
0.5784346
0.5776291
0.5761158
0.5742284
0.5717639
0.5681544
0.5588346
0.5784747
0.5776677
0.5761748
0.5742464
0.5717962
0.5683552
0.5602416
0.5785219
0.5777217
0.5762404
0.5742042
0.5717674
0.5687417
0.5635432
0.5785021
0.5777097
0.5760832
0.5739951
0.5716386
0.5691678
0.5642297
0.5783478
0.5774928
0.5757279
0.5737633
0.5712677
0.5684031
0.5645763
0.5780524
0.5770414
0.5751527
0.5731289
0.5702852
0.5673322
0.5643297
0.5776859
0.5764385
0.5741884
0.5714455
0.5695253
0.5672735
0.5630773
0.5773287
0.5756611
0.5728128
0.5703612
0.5691346
0.5672169
0.5610583
0.5772172
0.5750968
0.5721165
0.5699231
0.5683734
0.5668746
0.5606248
0.577052
0.5746964
0.571408
0.5694434
0.5676987
0.566508
0.5596939
0.5767524
0.5740663
0.5708294
0.5686105
0.5676018
0.56572
0.5604813
0.5767605
0.5739149
0.5704264
0.5679418
0.5678132
0.5652552
0.5603334
0.5768498
0.5736753
0.5694905
0.5677958
0.5680315
0.5660653
0.5606143
0.5771593
0.5742217
0.5691358
0.567892
0.5684575
0.5662024
0.5637196
0.5770778
0.5744883
0.569083
0.5679582
0.5682347
0.5667689
0.5665949
0.5769357
0.5749744
0.5695309
0.5674283
0.5679652
0.5674748
0.5674539
0.5765182
0.5744569
0.5692125
0.5673873
0.5672077
0.5676779
0.567313
0.5757503
0.5739865
0.5693209
0.5669838
0.5673996
0.5681994
0.566374
0.574902
0.5726741
0.568694
0.5671953
0.566992
0.5684883
0.5654712
0.5741831
0.5715942
0.5680275
0.567548
0.5661726
0.5675878
0.5652888
0.5735613
0.5704609
0.5678509
0.5673868
0.5665802
0.567167
0.5680914
0.5732699
0.5698469
0.5672839
0.5675943
0.5677575
0.5676177
0.5680936
0.5732852
0.5693902
0.5670431
0.5674789
0.5679532
0.5683109
0.5733119
0.5689862
0.5667674
0.5675222
0.5676963
0.5680066
0.573426
0.5687628
0.5666842
0.5674782
0.5685762
0.5697734
0.5740183
0.569383
0.5674885
0.5674238
0.5685108
0.5693751
0.5713907
0.574885
0.5709664
0.5685102
0.5674352
0.5670281
0.5683145
0.5668168
0.5755568
0.5724825
0.569891
0.5678238
0.5674861
0.5688322
0.5707641
0.5760767
0.5736202
0.5706995
0.5682749
0.5678883
0.5700724
0.5696004
0.5763589
0.574006
0.5699915
0.5679446
0.5689251
0.5706496
0.5693457
0.5762904
0.5738253
0.5699177
0.5682976
0.5689819
0.5714157
0.5711212
0.5761107
0.5738358
0.5696627
0.5684744
0.5697796
0.5712298
0.5695862
0.5759891
0.5734967
0.5698878
0.5686152
0.5697619
0.5699437
0.5678061
0.5759752
0.5735341
0.5700871
0.5691242
0.5688986
0.568294
0.5646172
0.5761191
0.5735416
0.570466
0.5694873
0.5684713
0.5668205
0.5625458
0.5763319
0.5739632
0.5710725
0.5694873
0.5687148
0.5660309
0.561042
0.576638
0.5744477
0.5715553
0.5701089
0.5686173
0.5666166
0.5609169
0.5769927
0.5749657
0.5725402
0.5703489
0.5691223
0.5684582
0.5618491
0.5774108
0.5754416
0.5732355
0.570516
0.5695783
0.5686928
0.562441
0.5778678
0.5762092
0.5744077
0.5715373
0.5699655
0.5684563
0.5630255
0.5782276
0.5768045
0.5753492
0.5731669
0.5701852
0.5679987
0.5646955
0.5784426
0.5772614
0.5758358
0.573969
0.5712575
0.5682012
0.5650765
0.5785072
0.5775293
0.5761302
0.5740808
0.5716517
0.5688034
0.5639672
0.5784851
0.5776143
0.5762529
0.5742448
0.5717557
0.5686476
0.5625591
0.5784483
0.5776156
0.5762346
0.5742607
0.5717901
0.5682742
0.5596648
0.5784257
0.5776018
0.5761549
0.5742439
0.5717769
0.5681493
0.5587086
0.5784123
0.5775874
0.5760835
0.5742205
0.5717433
0.5680843
0.5580597
0.5783974
0.5775419
0.5760537
0.5741937
0.5717046
0.5680199
0.5573262
0.5783714
0.5775012
0.5760315
0.5741678
0.5716673
0.5679385
0.5573587
0.5783343
0.5774507
0.5760133
0.5741436
0.5716333
0.5676504
0.5574099
0.5783205
0.5774327
0.5759947
0.574122
0.5716025
0.5675928
0.5574642
0.5783014
0.5771051
0.5755488
0.5740904
0.571573
0.5675521
0.5575161
0.5782747
0.5770923
0.5755343
0.5740734
0.5715391
0.5673308
0.5575722
0.5782648
0.5770807
0.5755193
0.574056
0.5715107
0.5672194
0.5576337
0.5782576
0.5770711
0.5755057
0.5740394
0.5714857
0.5671906
0.5576847
0.57825
0.5770619
0.5754927
0.5740234
0.5714584
0.5671638
0.5577379
0.5782426
0.5770534
0.5754806
0.5740079
0.5713324
0.5671285
0.5577822
0.5782371
0.5770454
0.5754691
0.5739933
0.5712807
0.5671005
0.5578282
0.5782318
0.5770377
0.5754583
0.5739797
0.5712638
0.5670781
0.5578758
0.5782268
0.5770306
0.5754481
0.5739668
0.5712475
0.5670567
0.5579169
0.578222
0.5770239
0.5754383
0.5739546
0.5712323
0.5670362
0.5579572
0.5782177
0.5770176
0.5754292
0.5739429
0.5712179
0.5670169
0.5579903
0.5782136
0.5770114
0.5754203
0.5739293
0.571153
0.5669982
0.5580177
0.5782097
0.5770053
0.575412
0.5739167
0.5710762
0.5669805
0.5580442
0.5782059
0.5769995
0.5754041
0.5739065
0.5710662
0.5669639
0.5580706
0.5782024
0.576994
0.5753965
0.5738966
0.5710568
0.5669482
0.5580787
0.5781988
0.5769886
0.575389
0.5738872
0.5710482
0.5669337
0.5580448
0.5781952
0.5769833
0.5753819
0.5738779
0.5710399
0.5668961
0.5579318
0.5781912
0.5769776
0.5753747
0.5738687
0.5710159
0.5668343
0.5578147
0.5781868
0.5769717
0.5753654
0.5738428
0.5709752
0.5667724
0.5576933
0.5781815
0.5769638
0.5753325
0.5737993
0.5709342
0.5667107
0.5575713
0.5781742
0.5769362
0.5752969
0.5737551
0.5708931
0.5666487
0.5574436
0.5781507
0.5769054
0.575259
0.5737103
0.5708535
0.5665835
0.5573141
0.5781236
0.5768737
0.5752203
0.5736673
0.5708661
0.5665141
0.5571816
0.5780948
0.5768406
0.5751807
0.5736215
0.5708157
0.5664444
0.5570435
0.5780641
0.5768066
0.5751406
0.5735759
0.5707634
0.5663744
0.5568991
0.5780319
0.5767722
0.5751003
0.5735304
0.5707109
0.5663042
0.5567279
0.5779999
0.5767385
0.5750606
0.5734859
0.5706583
0.5662336
0.5565049
0.577969
0.5767049
0.5750212
0.5734426
0.5706058
0.5661625
0.5561948
0.004913788
0
0
0
0
1.593106e-33
8.30193e-39
2.152251e-44
4.448128e-50
6.347736e-56
6.81544e-62
5.668709e-68
3.66417e-74
1.844804e-80
1.041004e-86
4.436942e-93
1.661624e-99
5.196843e-106
0.01054086
2.707925e-10
6.934884e-17
1.209577e-22
2.259543e-28
5.669375e-34
1.396337e-39
3.562893e-45
8.849446e-51
1.438627e-56
1.683177e-62
1.463612e-68
9.746967e-75
5.039335e-81
2.808108e-87
1.279655e-93
5.20497e-100
1.794854e-106
0.01184313
4.087816e-09
1.051396e-15
5.003964e-22
4.862147e-28
9.625506e-34
2.126815e-39
4.943505e-45
9.961689e-51
1.468691e-56
1.635755e-62
1.39354e-68
9.054098e-75
4.558015e-81
2.719455e-87
1.139128e-93
4.644541e-100
1.617173e-106
0.01266531
5.642591e-09
2.432114e-15
1.159646e-21
9.992632e-28
1.918552e-33
4.172383e-39
9.589659e-45
1.893913e-50
2.760622e-56
3.031874e-62
2.53424e-68
1.616931e-74
8.012554e-81
4.609737e-87
1.928268e-93
7.844182e-100
2.729653e-106
0.01373658
6.569513e-09
3.933089e-15
2.093928e-21
1.824183e-27
3.614e-33
8.131681e-39
1.903031e-44
3.800016e-50
5.585151e-56
6.219439e-62
5.196851e-68
3.281352e-74
1.620943e-80
0
9.974576e-94
7.236857e-100
3.359834e-106
0.01503383
9.025082e-09
6.456844e-15
3.834285e-21
3.363267e-27
6.81638e-33
1.600864e-38
3.851039e-44
7.837307e-50
1.186661e-55
1.349434e-61
1.149487e-67
7.266817e-74
3.654443e-80
1.46573e-86
7.979233e-93
3.647492e-99
1.435699e-105
0.01651229
1.399929e-08
1.154428e-14
7.574672e-21
6.537823e-27
1.316459e-32
3.22383e-38
8.056326e-44
1.68801e-49
2.646225e-55
3.100084e-61
2.696471e-67
1.755111e-73
9.003746e-80
4.068545e-86
2.250847e-92
1.102131e-98
4.688901e-105
0.01807644
2.248747e-08
2.095786e-14
1.53947e-20
1.320045e-26
2.6353e-32
6.682438e-38
1.728091e-43
3.734653e-49
6.152954e-55
7.501255e-61
6.761879e-67
4.546259e-73
2.479668e-79
1.203889e-85
7.19652e-92
3.791781e-98
1.75813e-104
0.01916086
3.709623e-08
4.092375e-14
3.2965e-20
2.736047e-26
5.375749e-32
1.432136e-37
3.868041e-43
8.672394e-49
1.497681e-54
1.919938e-60
1.808616e-66
1.286137e-72
7.446047e-79
3.955609e-85
2.591839e-91
1.489015e-97
7.583809e-104
0.02023505
6.555182e-08
9.810402e-14
8.252454e-20
6.316364e-26
1.143394e-31
3.13368e-37
8.908104e-43
2.095943e-48
3.832761e-54
5.252523e-60
5.235993e-66
3.987256e-72
2.479937e-78
1.467374e-84
1.066752e-90
6.649934e-97
3.726514e-103
0.02144772
1.029321e-07
2.649569e-13
3.021239e-19
2.101174e-25
2.821541e-31
7.248488e-37
2.164753e-42
5.325642e-48
1.043556e-53
1.525394e-59
1.62823e-65
1.329574e-71
9.113976e-78
6.002135e-84
4.906613e-90
3.26972e-96
2.020903e-102
0.02253591
1.023542e-07
3.710448e-13
6.107627e-19
5.154382e-25
6.738991e-31
1.736531e-36
5.503231e-42
1.447147e-47
3.097553e-53
4.860422e-59
5.571945e-65
4.943108e-71
3.748725e-77
2.793713e-83
2.49802e-89
1.817082e-95
1.23084e-101
0.02366803
9.414172e-08
3.493761e-13
6.470576e-19
7.201433e-25
1.324567e-30
3.999463e-36
1.453083e-41
4.28341e-47
1.017864e-52
1.739892e-58
2.167799e-64
2.09971e-70
1.779677e-76
1.492733e-82
1.44833e-88
1.129362e-94
8.487163e-101
0.02498111
1.217331e-07
6.034476e-13
1.293266e-18
1.705574e-24
4.018387e-30
1.680123e-35
6.937018e-41
1.994447e-46
4.838815e-52
8.798403e-58
1.15116e-63
1.196414e-69
1.105051e-75
1.011243e-81
1.083043e-87
9.051036e-94
7.385341e-100
0.03039828
8.730555e-08
4.27622e-13
1.080985e-18
2.312249e-24
9.175962e-30
4.510618e-35
2.07568e-40
7.519862e-46
2.188351e-51
4.513317e-57
6.776982e-63
8.091658e-69
8.240942e-75
8.464763e-81
9.125599e-87
8.481895e-93
7.493667e-99
0.03187441
0
5.752997e-13
1.39603e-18
2.862572e-24
7.905e-30
3.187651e-35
1.454913e-40
5.695523e-46
1.84851e-51
4.300115e-57
7.403845e-63
1.05534e-68
1.36843e-74
1.718794e-80
2.241117e-86
2.409927e-92
2.46582e-98
0.03392979
2.572278e-07
0
2.124227e-18
6.605154e-24
2.817316e-29
1.127273e-34
3.968688e-40
1.24726e-45
3.626338e-51
8.295515e-57
1.483155e-62
2.352455e-68
3.631848e-74
5.739034e-80
8.8009e-86
1.171842e-91
1.402785e-97
0.03618647
3.373832e-07
2.314716e-12
0
8.699971e-24
5.564264e-29
3.241132e-34
1.295939e-39
4.034539e-45
1.175655e-50
2.685447e-56
4.674005e-62
7.13304e-68
1.105518e-73
1.83143e-79
3.090075e-85
4.386949e-91
5.588655e-97
0.03860898
4.348689e-07
3.498319e-12
1.432682e-17
0
8.110802e-29
7.479337e-34
4.811209e-39
1.702433e-44
4.78377e-50
1.066734e-55
1.903069e-61
3.022067e-67
4.926284e-73
8.914855e-79
1.561702e-84
2.469934e-90
3.298484e-96
0.04102784
5.552927e-07
5.193585e-12
2.443697e-17
7.872065e-23
0
1.482157e-33
1.405229e-38
7.41928e-44
2.673805e-49
6.085773e-55
1.045973e-60
1.629357e-66
2.534213e-72
8.635385e-78
9.550231e-84
1.875243e-89
2.375748e-95
0.04343967
6.95947e-07
7.573113e-12
4.109575e-17
1.437587e-22
5.949694e-28
0
1.71234e-38
1.120831e-43
5.703316e-49
1.875855e-54
4.088938e-60
7.509586e-66
1.377837e-71
6.063801e-77
4.698346e-83
1.254727e-88
1.506752e-94
0.04593707
8.667099e-07
1.098237e-11
6.842175e-17
2.709547e-22
1.209083e-27
9.113625e-33
0
2.285365e-43
1.680743e-48
7.436091e-54
2.074389e-59
4.169008e-65
8.042454e-71
2.087415e-76
3.432271e-82
6.310791e-88
7.708582e-94
0.04858153
1.070015e-06
1.568938e-11
1.133803e-16
5.198046e-22
2.666924e-27
2.242399e-32
1.772656e-37
0
4.732529e-48
2.394721e-53
9.282583e-59
2.579453e-64
5.518511e-70
1.745173e-75
2.67915e-81
5.455371e-87
7.179998e-93
0.05136809
1.32521e-06
2.249146e-11
1.883065e-16
9.962003e-22
5.864275e-27
5.509294e-32
4.758522e-37
3.001726e-42
0
6.905654e-53
3.268145e-58
1.276719e-63
3.500355e-69
9.509753e-75
1.857593e-80
4.154364e-86
5.817003e-92
0.05436592
1.63966e-06
3.238839e-11
3.118809e-16
1.891793e-21
1.270301e-26
1.340289e-31
1.270793e-36
8.713618e-42
5.670904e-47
0
9.874969e-58
5.389612e-63
2.221801e-68
8.215706e-74
1.454237e-79
2.925148e-85
3.946818e-91
0.05747682
2.010514e-06
4.608796e-11
5.121678e-16
3.565282e-21
2.714087e-26
3.203165e-31
3.340794e-36
2.501597e-41
1.773308e-46
9.868386e-52
0
1.720084e-62
1.238187e-67
1.293437e-72
1.23598e-78
2.290641e-84
2.675127e-90
0.06081192
2.481275e-06
6.614027e-11
8.479002e-16
6.756148e-21
5.795816e-26
7.625785e-31
8.798838e-36
7.212252e-41
5.592527e-46
3.403076e-51
1.866794e-56
0
3.212733e-67
1.161029e-72
4.405668e-78
9.797352e-84
1.583031e-89
0.0643664
3.050669e-06
9.471536e-11
1.407612e-15
1.286084e-20
1.245286e-25
1.852342e-30
2.390028e-35
2.150915e-40
1.837396e-45
1.2367e-50
7.422682e-56
4.389714e-61
0
5.916495e-72
2.30684e-77
6.239162e-83
1.269095e-88
0.0680907
3.745431e-06
1.353194e-10
2.352385e-15
2.467774e-20
2.660448e-25
4.458201e-30
6.389359e-35
6.294881e-40
5.934924e-45
4.355741e-50
2.86603e-55
1.838832e-60
3.78586e-65
3.955917e-71
4.001148e-76
7.85433e-82
1.782356e-87
0.0721185
4.59589e-06
1.934189e-10
4.022654e-15
5.051598e-20
5.918325e-25
1.132413e-29
1.748488e-34
1.874747e-39
1.96884e-44
1.599962e-49
1.181224e-54
8.534882e-60
2.394197e-64
8.82632e-70
2.015401e-79
3.059905e-81
2.485156e-86
0.07638259
5.596977e-06
2.695397e-10
6.492474e-15
1.670787e-19
1.642799e-24
3.529791e-29
4.630935e-34
4.200946e-39
5.875669e-44
6.299021e-49
4.316086e-54
2.95631e-59
2.982395e-64
1.589098e-69
7.445926e-75
2.496954e-80
9.877117e-85
0.08086357
6.708565e-06
3.462437e-10
8.199918e-15
1.189264e-19
2.027547e-24
4.45522e-29
8.453454e-34
1.279559e-38
2.241601e-43
2.879768e-48
2.138117e-53
1.731222e-58
1.663938e-63
1.605888e-68
6.04676e-74
2.130812e-79
9.478061e-84
0.08576165
7.806343e-06
4.301609e-10
8.597075e-15
1.786553e-19
4.2804e-24
1.046408e-28
2.002729e-33
3.41902e-38
3.881089e-43
4.547475e-48
5.023455e-53
7.473871e-58
0
8.685851e-68
3.85487e-73
3.357463e-78
0
0.09134338
8.719469e-06
5.678991e-10
1.347162e-14
2.171361e-19
4.926311e-24
1.334733e-28
3.207835e-33
6.13391e-38
8.088692e-43
1.128703e-47
1.364816e-52
2.333352e-57
2.81393e-62
2.430003e-67
2.203214e-72
1.498222e-76
9.37459e-83
0.1073595
1.666884e-05
1.525505e-09
5.858089e-14
0
2.127944e-23
5.427233e-28
1.2228e-32
0
5.955026e-42
1.28134e-46
1.229359e-51
7.445996e-56
3.439512e-61
2.678547e-66
3.021853e-71
6.386802e-76
3.075466e-81
0.1174682
2.375846e-05
2.586669e-09
1.223065e-13
2.683815e-18
5.470898e-23
1.725531e-27
0
1.605256e-36
4.351856e-41
6.239209e-46
7.62261e-51
2.914125e-55
2.71761e-60
3.83614e-65
1.242984e-69
0
6.012572e-80
0.1347833
2.975641e-05
3.348197e-09
1.719734e-13
4.191867e-18
1.063083e-22
3.801012e-27
1.054606e-31
2.921182e-36
6.470632e-41
1.407706e-45
3.753937e-50
7.332426e-55
2.016065e-59
3.375424e-64
3.520294e-68
1.334206e-73
1.035078e-78
0.2335487
7.36076e-05
1.139735e-08
8.530001e-13
2.067245e-17
4.182341e-22
1.244183e-26
3.18452e-31
8.933618e-36
2.459426e-40
7.331557e-45
3.081651e-49
7.415165e-54
2.422892e-58
1.351762e-62
2.650461e-67
2.635452e-72
1.549239e-77
0.365549
0.0001113703
1.032063e-08
8.755202e-13
1.369846e-17
1.583221e-22
4.737431e-27
1.120517e-31
4.468291e-36
2.077274e-40
9.96326e-45
1.94146e-48
2.460828e-53
5.754761e-58
3.433049e-62
0
7.979332e-72
1.362469e-76
0.4609021
0.0003925111
5.955662e-08
2.978466e-12
1.672524e-17
1.072918e-22
4.198895e-27
2.238874e-31
1.634593e-35
8.605929e-40
3.91401e-44
1.116358e-47
9.722629e-53
2.527248e-57
2.790992e-61
2.52828e-66
1.970645e-71
5.743562e-76
0.5196726
0.001525143
2.410094e-07
2.442753e-12
6.718673e-18
8.967863e-22
7.504988e-26
5.05731e-30
4.063308e-34
2.386909e-38
1.820792e-42
0
4.913722e-51
4.355359e-55
1.647524e-60
7.487306e-64
6.418618e-69
2.386165e-73
0.5298284
0.001007066
6.04616e-08
1.435715e-13
2.711325e-17
5.212758e-21
6.151768e-25
4.393371e-29
5.25132e-33
5.972323e-37
9.027592e-41
2.544498e-44
3.048774e-48
7.710524e-53
1.562589e-56
1.186629e-60
5.608435e-66
2.14476e-71
0.5358422
0.000914098
2.221944e-09
1.612455e-14
6.544639e-18
1.560062e-21
9.176435e-25
3.795254e-28
1.849928e-31
7.530455e-35
2.451875e-38
7.355291e-42
1.789606e-45
9.509395e-50
1.229895e-53
1.36376e-57
0
0
0.5397664
0.001519111
1.34276e-08
2.601988e-13
1.604257e-16
6.550955e-20
6.44778e-23
3.23722e-26
2.091253e-29
1.018475e-32
2.707046e-36
1.377652e-39
4.472409e-43
1.508066e-46
7.909396e-51
9.787753e-55
0
3.781706e-64
0.5438537
0.001359468
2.312123e-09
3.048708e-13
5.694999e-16
5.502093e-19
9.399152e-22
9.343141e-25
1.032722e-27
1.084832e-30
1.284992e-33
4.48868e-37
1.199169e-40
4.472735e-44
3.355155e-48
2.57663e-52
1.678628e-56
2.396024e-61
0.5467131
0.001098032
3.576742e-09
6.982023e-12
3.138574e-14
4.805131e-17
7.747832e-20
1.122528e-22
1.231082e-25
1.999178e-28
4.064426e-31
1.270179e-34
1.161824e-37
1.008925e-41
7.014098e-46
6.428761e-50
3.095726e-54
6.813154e-59
0.5529223
0.002931969
4.369567e-07
5.27322e-10
1.810637e-12
5.684526e-15
8.75635e-18
1.337644e-20
2.15353e-23
1.850695e-26
4.11862e-29
1.614948e-32
1.073831e-35
2.995706e-40
1.65884e-43
1.718126e-47
1.976066e-52
0
0.5581167
0.03311646
2.928729e-05
2.305617e-08
6.496656e-11
4.03772e-13
5.066047e-16
1.012071e-18
2.495374e-21
3.25668e-24
3.658852e-27
4.905791e-31
7.904053e-34
1.063396e-37
1.43211e-41
1.374304e-45
1.459599e-50
6.968226e-55
0.560864
0.08247838
0.0001531104
7.033675e-07
7.058241e-09
3.685105e-11
5.023681e-14
9.296515e-17
1.381971e-19
1.027828e-22
1.184033e-25
1.139158e-28
6.17568e-32
0
2.721565e-40
0
8.008442e-49
0
0.5637821
0.1889667
0.0008263742
6.444437e-06
0
3.62549e-23
7.088266e-26
0
0
5.748486e-36
2.030495e-40
5.917886e-44
4.377844e-49
2.298119e-53
0.5647218
0.5145332
0
8.021201e-30
4.032078e-36
1.167144e-37
0
4.751118e-45
0
0
0.5634266
0
4.145721e-33
5.347849e-37
0
1.44245e-46
1.982133e-50
2.24209e-55
4.775947e-32
1.894972e-37
4.348843e-42
2.440409e-46
0
9.61939e-56
2.219945e-37
0
0
4.908721e-50
4.681817e-55
6.74555e-40
5.497432e-44
2.583829e-47
0
1.855512e-56
3.205613e-41
5.743204e-45
3.19646e-49
1.225585e-53
5.385942e-58
5.662654e-43
4.940157e-47
4.020257e-51
1.12527e-55
1.323089e-60
6.079363e-41
7.393993e-45
2.076013e-49
1.470027e-53
1.85037e-58
7.342314e-39
1.415623e-42
4.802954e-47
0
1.132091e-56
0
5.246356e-37
5.256326e-41
2.568914e-45
5.193793e-50
6.341361e-57
0.5672415
0
2.945471e-37
3.672401e-41
5.111717e-46
1.645263e-50
1.737445e-55
0.5653295
0.5238231
1.907378e-30
1.048055e-33
6.055972e-37
2.379189e-41
3.580629e-46
1.856288e-51
5.586931e-57
0.5639489
0.269329
0.00114527
0
2.910651e-28
3.033271e-29
4.60807e-33
1.939961e-37
1.046245e-41
5.943605e-47
1.134754e-51
3.677614e-57
0.5595707
0.1104428
0.0003382246
2.906023e-06
3.267324e-08
1.836336e-10
4.871232e-13
4.610103e-16
1.512305e-19
1.496275e-22
2.301262e-25
8.877691e-29
1.514604e-32
8.510763e-37
1.650189e-41
6.676019e-46
7.776629e-51
1.352129e-56
0.5552899
0.03964028
5.164459e-05
1.769445e-07
6.560045e-10
2.305925e-12
3.381476e-15
4.03291e-18
4.526955e-21
3.43385e-24
2.485138e-27
6.833064e-31
5.761773e-35
6.362014e-39
1.479394e-43
6.518888e-48
4.013338e-53
8.339892e-58
0.5535966
0.01367822
4.943209e-06
6.052341e-09
9.094677e-12
1.513161e-14
2.443265e-17
2.916511e-20
2.686975e-23
1.092369e-26
3.792945e-30
1.670387e-33
2.05713e-37
9.614609e-42
7.017107e-46
7.200742e-51
3.564391e-55
0
0.5493997
0.002163035
1.564119e-07
1.038731e-10
2.063761e-13
3.040182e-16
3.325615e-19
2.49689e-22
1.465233e-25
9.330115e-29
1.219325e-32
7.690404e-36
6.980244e-40
1.054424e-43
2.830407e-48
1.193058e-52
4.465132e-58
1.739728e-62
0.5430054
0.001154335
4.652314e-09
1.069409e-12
1.681504e-15
1.205183e-18
1.221212e-21
9.01155e-25
4.496962e-28
2.239157e-31
4.965031e-35
1.455395e-38
0
2.099906e-46
3.447691e-50
2.249061e-55
2.504148e-59
0
0.5421337
0.001179957
7.935894e-08
8.706462e-12
1.575626e-15
3.405791e-19
6.921842e-23
1.291918e-26
2.787171e-30
6.906422e-34
1.564675e-37
2.871927e-41
3.9324e-45
1.082167e-49
4.602102e-53
2.985732e-57
1.152089e-62
1.408941e-66
0.5391643
0.001860408
3.369619e-07
1.194762e-11
3.746912e-16
1.391315e-20
8.084201e-25
6.801126e-29
7.573652e-33
9.44724e-37
1.672071e-40
4.655677e-45
3.40143e-48
0
2.332104e-56
1.879165e-60
7.552725e-65
4.798406e-70
0.531699
0.002106618
3.939524e-07
2.539746e-11