/*--------------------------------*- C++ -*----------------------------------*\
| =========                 |                                                 |
| \\      /  F ield         | OpenFOAM: The Open Source CFD Toolbox           |
|  \\    /   O peration     | Version:  2206                                  |
|   \\  /    A nd           | Website:  www.openfoam.com                      |
|    \\/     M anipulation  |                                                 |
\*---------------------------------------------------------------------------*/
FoamFile
{
    version     2.0;
    format      ascii;
    arch        "LSB;label=32;scalar=64";
    class       volScalarField;
    location    "1.8";
    object      alpha.a_0;
}
// * * * * * * * * * * * * * * * * * * * * * * * * * * * * * * * * * * * * * //

dimensions      [0 0 0 0 0 0 0];

internalField   nonuniform List<scalar> 
13078
(
0.5222669
0.5631702
0.5807545
0.5810862
0.5805455
0.5798233
0.5789741
0.5670264
0.5807903
0.5817409
0.5812239
0.5805839
0.5798492
0.5789964
0.5825175
0.5824969
0.5819565
0.5813242
0.5806452
0.5798898
0.579028
0.5833752
0.5826873
0.5820503
0.5814041
0.580704
0.5799329
0.5790629
0.5834348
0.5827459
0.5821085
0.5814504
0.580752
0.5799733
0.5790972
0.5833998
0.5827536
0.5821348
0.5814799
0.5807774
0.5800069
0.5791295
0.5833637
0.5827455
0.5821456
0.5814979
0.5807951
0.5800227
0.5791571
0.5833379
0.5827337
0.5821492
0.581507
0.5808052
0.5800338
0.5791681
0.5833197
0.5827228
0.5821464
0.5815094
0.5808106
0.580041
0.5791762
0.5833066
0.5827138
0.5821425
0.5815096
0.5808133
0.5800456
0.5791819
0.583297
0.5827067
0.5821386
0.5815087
0.5808146
0.5800487
0.5791864
0.5832894
0.5827013
0.5821352
0.5815073
0.5808151
0.5800508
0.5791898
0.5832834
0.5826967
0.5821322
0.5815059
0.5808152
0.5800524
0.5791926
0.5832784
0.582693
0.5821296
0.5815048
0.5808154
0.5800537
0.5791952
0.5832742
0.5826898
0.5821277
0.5815076
0.5808208
0.5800555
0.5791976
0.5832703
0.5826871
0.5821261
0.5815114
0.5808249
0.5800571
0.5792001
0.5832668
0.5826844
0.5821244
0.5815111
0.5808254
0.5800585
0.5792026
0.5832633
0.582682
0.5821228
0.5815106
0.580826
0.58006
0.5792053
0.5832599
0.5826796
0.5821214
0.5815102
0.5808268
0.5800621
0.579208
0.5832563
0.5826773
0.58212
0.5815104
0.5808333
0.580072
0.5792117
0.5832527
0.5826748
0.5821187
0.5815106
0.5808411
0.5800798
0.5792156
0.5832487
0.5826722
0.5821171
0.5815102
0.5808429
0.5800825
0.5792189
0.5832444
0.5826694
0.5821155
0.5815101
0.5808441
0.5800856
0.5792235
0.5832397
0.5826663
0.5821137
0.5815099
0.5808462
0.5800966
0.5792395
0.5832344
0.5826628
0.5821117
0.5815097
0.5808484
0.5801095
0.5792524
0.5832284
0.5826589
0.5821096
0.5815094
0.5808501
0.5801146
0.5792587
0.5832216
0.5826545
0.5821071
0.5815092
0.580852
0.580119
0.5792659
0.5832139
0.5826495
0.5821043
0.5815089
0.5808544
0.5801246
0.5792846
0.5832052
0.5826438
0.5821012
0.5815086
0.580857
0.5801306
0.5793064
0.5831969
0.5826392
0.5820983
0.5815083
0.5808597
0.5801361
0.5793171
0.583187
0.5826334
0.5820949
0.5815082
0.5808628
0.5801422
0.5793273
0.5831751
0.5826291
0.5820963
0.5815093
0.5808661
0.5801488
0.5793378
0.5831623
0.5826251
0.5821004
0.5815186
0.580873
0.5801584
0.5793499
0.5831498
0.5826213
0.582107
0.5815297
0.5808889
0.5801804
0.5793748
0.5831405
0.5826252
0.582127
0.5815724
0.5809483
0.5802385
0.5794303
0.5831414
0.5826539
0.5821903
0.5816757
0.581075
0.5803636
0.5795273
0.5831674
0.5827409
0.5823343
0.581852
0.5812646
0.5805077
0.5796206
0.5832475
0.5829201
0.5825637
0.5820771
0.5814541
0.5806408
0.57964
0.5834169
0.5831824
0.582832
0.5822995
0.5816045
0.5807349
0.579564
0.5837035
0.5834927
0.5830974
0.5825034
0.5817258
0.5807555
0.5794505
0.5840986
0.5838163
0.583395
0.5827118
0.5818671
0.580823
0.5794398
0.5846002
0.5841501
0.5837017
0.5830138
0.5821201
0.5810038
0.579427
0.5851709
0.5845064
0.5840297
0.5833952
0.582577
0.5812214
0.5793878
0.5857427
0.5848043
0.5844055
0.5838398
0.582933
0.5813943
0.5792858
0.586195
0.5850444
0.5847466
0.5841657
0.5830627
0.5814317
0.5794258
0.5864416
0.585245
0.5849599
0.5842016
0.5830097
0.5814182
0.5794938
0.5866449
0.5854605
0.5849046
0.5839877
0.5827931
0.5812737
0.5795721
0.586993
0.5856497
0.5848066
0.5836952
0.5825346
0.5810934
0.5794149
0.5873585
0.5857518
0.5847409
0.5834936
0.5822439
0.5807913
0.5791414
0.5876328
0.5858254
0.5846884
0.5832963
0.5819
0.5803327
0.5787586
0.5877438
0.5859189
0.5846714
0.5830112
0.5814516
0.5797798
0.578158
0.5876902
0.5859174
0.5845359
0.5827449
0.5810594
0.5793633
0.577559
0.5875362
0.5858387
0.584286
0.5824391
0.5807012
0.5790273
0.5771502
0.5873574
0.585754
0.5841281
0.5821926
0.5804079
0.5786983
0.5770005
0.5871713
0.585655
0.5839833
0.5820135
0.5802249
0.5785436
0.5768861
0.5869919
0.5855727
0.5839016
0.5819432
0.5801566
0.5784978
0.5768565
0.586939
0.5855471
0.583905
0.5819715
0.5802013
0.5785462
0.5768967
0.5870034
0.5855661
0.5839809
0.5820927
0.5803481
0.5786814
0.5770418
0.5870489
0.5855678
0.5840824
0.582286
0.580578
0.5789126
0.5772988
0.5870613
0.5855368
0.5841724
0.5825084
0.5808937
0.5792813
0.5775583
0.5870477
0.5854902
0.5843235
0.5827241
0.5811924
0.5795619
0.5778631
0.5869696
0.5853995
0.5843617
0.582871
0.5814524
0.5798555
0.5782882
0.5867432
0.5852468
0.584342
0.5830995
0.5817769
0.5802381
0.5786432
0.5864002
0.585175
0.5844448
0.5833265
0.58205
0.5804916
0.5787847
0.5860246
0.5851253
0.5845913
0.5835563
0.5822465
0.5805586
0.5787556
0.5857546
0.5850041
0.5846542
0.5837324
0.5823267
0.5805058
0.5786774
0.5855653
0.5848047
0.5845481
0.5837414
0.5823453
0.5805643
0.5786331
0.585262
0.5845294
0.5841934
0.5835479
0.5823429
0.5806333
0.5787288
0.5848192
0.5842258
0.5838207
0.5832198
0.5822256
0.5807316
0.5788033
0.5843603
0.5839257
0.5834747
0.5828488
0.5820072
0.5807017
0.5789916
0.5839468
0.5836357
0.5831951
0.5825578
0.5817422
0.5806538
0.579154
0.5836076
0.5833779
0.5829707
0.582348
0.5815798
0.5806218
0.5793618
0.5833632
0.5831215
0.582748
0.582199
0.581494
0.580622
0.5794483
0.583212
0.5828906
0.5825275
0.5820262
0.5813895
0.580608
0.5795506
0.5831415
0.5827281
0.5823254
0.58184
0.5812484
0.5805027
0.5795895
0.5831191
0.5826436
0.5821874
0.5816785
0.581085
0.5803667
0.5795286
0.5831204
0.5826138
0.5821223
0.5815822
0.5809638
0.5802559
0.5794439
0.5831321
0.5826102
0.5821028
0.581537
0.5809036
0.5801898
0.5793863
0.5831467
0.5826155
0.5820993
0.5815193
0.5808754
0.5801646
0.5793598
0.5831614
0.5826231
0.5820977
0.5815152
0.5808694
0.5801549
0.5793475
0.5831759
0.5826287
0.5820952
0.5815081
0.5808654
0.5801487
0.5793383
0.5831885
0.5826341
0.5820949
0.5815082
0.580863
0.5801429
0.5793286
0.5831985
0.5826404
0.582099
0.581509
0.5808606
0.5801373
0.5793187
0.5832068
0.5826452
0.5821023
0.5815097
0.5808582
0.5801321
0.5793083
0.5832155
0.5826511
0.5821056
0.5815103
0.5808558
0.5801262
0.5792865
0.5832232
0.582656
0.5821085
0.5815106
0.5808536
0.5801207
0.5792678
0.5832299
0.5826604
0.582111
0.5815107
0.5808516
0.5801163
0.5792605
0.5832356
0.5826641
0.582113
0.5815109
0.5808498
0.580111
0.579254
0.5832408
0.5826673
0.5821147
0.5815111
0.5808474
0.5800978
0.5792408
0.5832453
0.5826704
0.5821164
0.5815111
0.5808452
0.5800868
0.5792246
0.5832494
0.5826729
0.5821179
0.5815111
0.5808438
0.5800834
0.57922
0.5832532
0.5826754
0.5821193
0.5815112
0.5808417
0.5800806
0.5792164
0.5832566
0.5826777
0.5821204
0.5815107
0.5808337
0.5800724
0.5792122
0.5832599
0.5826798
0.5821215
0.5815104
0.580827
0.5800623
0.5792082
0.5832631
0.5826819
0.5821227
0.5815106
0.5808261
0.5800601
0.5792055
0.5832662
0.5826839
0.582124
0.5815109
0.5808254
0.5800586
0.5792029
0.5832694
0.5826862
0.5821254
0.5815109
0.5808247
0.5800572
0.5792004
0.5832726
0.5826884
0.5821266
0.5815069
0.5808205
0.5800556
0.5791979
0.5832761
0.582691
0.5821282
0.5815039
0.580815
0.5800537
0.5791956
0.5832802
0.582694
0.5821302
0.5815049
0.5808148
0.5800526
0.5791933
0.5832849
0.5826978
0.5821328
0.5815061
0.5808149
0.5800514
0.579191
0.5832909
0.5827022
0.5821357
0.5815074
0.5808148
0.58005
0.5791883
0.5832983
0.5827077
0.5821391
0.5815087
0.5808143
0.580048
0.579185
0.5833078
0.5827147
0.5821429
0.5815096
0.5808132
0.5800451
0.5791808
0.5833206
0.5827236
0.5821465
0.5815096
0.5808106
0.5800405
0.5791749
0.5833385
0.5827343
0.5821466
0.5815052
0.580805
0.5800332
0.5791667
0.5833642
0.5827461
0.5821441
0.5814956
0.5807945
0.5800223
0.5791426
0.5833998
0.5827547
0.5821359
0.5814804
0.5807786
0.5799949
0.5791138
0.5834347
0.5827472
0.5821101
0.5814537
0.5807423
0.5799605
0.5790821
0.5833766
0.5826893
0.5820584
0.581397
0.580694
0.5799209
0.5790476
0.5825644
0.5825209
0.5819514
0.581318
0.5806369
0.5798781
0.5790125
0.5680136
0.5811118
0.5818228
0.5812219
0.5805712
0.5798339
0.5789785
0.5779672
0.576704
0.5750203
0.5734208
0.5705799
0.5661263
0.5559874
0.5779907
0.5767332
0.5750571
0.5734635
0.570632
0.5661986
0.5564111
0.5780198
0.576765
0.5750977
0.5729097
0.570682
0.5662685
0.5566394
0.5780512
0.5767979
0.5751339
0.573559
0.5707348
0.5663389
0.5568479
0.5780826
0.5768317
0.5751738
0.5736055
0.5707878
0.5664093
0.5569981
0.5781133
0.5768657
0.5752141
0.5736527
0.5708401
0.5664792
0.5571414
0.5781425
0.5768987
0.5752537
0.5736978
0.5708557
0.5665488
0.5572781
0.5781681
0.5769308
0.5752925
0.5737417
0.5708701
0.5666178
0.5574091
0.578177
0.5769598
0.5753291
0.5737858
0.5709122
0.5666798
0.5575372
0.5781837
0.5769687
0.5753629
0.5738295
0.5709535
0.5667417
0.5576607
0.5781891
0.5769755
0.5753727
0.5738715
0.5709947
0.5668035
0.5577806
0.5781938
0.5769818
0.5753804
0.573881
0.5710361
0.5668654
0.5578976
0.5781979
0.5769876
0.5753881
0.5738897
0.5710437
0.5669287
0.5580107
0.5782018
0.5769933
0.5753958
0.5738988
0.5710522
0.5669413
0.558109
0.5782056
0.5769991
0.5754037
0.5739081
0.5710613
0.5669563
0.5580785
0.5782096
0.5770051
0.5754117
0.5739178
0.5710712
0.5669725
0.5580542
0.5782135
0.5770112
0.5754201
0.5739284
0.5710867
0.5669895
0.5580393
0.5782176
0.5770174
0.575429
0.5739438
0.5712059
0.5670079
0.5580077
0.5782218
0.5770237
0.5754382
0.5739553
0.5712251
0.5670268
0.5579811
0.5782264
0.5770303
0.5754479
0.5739675
0.5712401
0.5670468
0.5579474
0.5782312
0.5770373
0.5754579
0.5739803
0.5712559
0.5670676
0.5578938
0.5782363
0.5770446
0.5754681
0.573994
0.5712724
0.5670896
0.5578532
0.5782417
0.5770524
0.5754792
0.5740064
0.5712941
0.5671126
0.557809
0.5782488
0.5770609
0.5754923
0.5734596
0.5714136
0.5671479
0.5577653
0.5782562
0.5770695
0.5755037
0.574036
0.571473
0.5671766
0.5577203
0.5782631
0.5770788
0.5755168
0.5740554
0.5714973
0.567204
0.5576718
0.5782728
0.5770902
0.5755321
0.5740744
0.571522
0.5672364
0.5576131
0.5782994
0.5771028
0.5755464
0.5740934
0.5715549
0.5674771
0.5575545
0.5783184
0.5774419
0.5759839
0.5741076
0.5715856
0.5675717
0.5575069
0.5783323
0.5774536
0.5760015
0.5741294
0.571615
0.5676116
0.5574564
0.5783692
0.5774953
0.576019
0.574152
0.571647
0.567786
0.5574098
0.5783954
0.5775371
0.5760369
0.5741768
0.5716828
0.5679894
0.5573696
0.5784126
0.5775999
0.576061
0.5742031
0.5717218
0.5680506
0.5574074
0.5784352
0.5776294
0.5761158
0.5742281
0.5717629
0.5681526
0.5588273
0.5784758
0.5776684
0.5761752
0.5742457
0.5717934
0.5683475
0.5602205
0.5785244
0.5777239
0.5762419
0.5742033
0.5717619
0.5687285
0.5635251
0.5785078
0.5777155
0.5760876
0.5739953
0.5716311
0.5691529
0.5642223
0.5783586
0.5775045
0.5757371
0.5737641
0.571256
0.5683785
0.5645638
0.5780692
0.5770605
0.5751676
0.5731292
0.5702672
0.567285
0.5642981
0.577708
0.5764644
0.5742063
0.5714425
0.5694938
0.5671902
0.5630091
0.5773539
0.5756904
0.5728315
0.5703541
0.5690623
0.5670583
0.5608952
0.5772431
0.5751286
0.5721377
0.5699184
0.5682413
0.566681
0.5604293
0.5770787
0.5747296
0.571433
0.5694427
0.5675473
0.5663347
0.5596215
0.5767785
0.5740983
0.5708527
0.5686027
0.5673714
0.5655337
0.5604075
0.5767858
0.5739453
0.5704428
0.5678999
0.5673926
0.5650688
0.5602333
0.5768769
0.5737045
0.5695029
0.567595
0.5675861
0.5659248
0.5604691
0.5771906
0.574259
0.5691515
0.5675299
0.568053
0.5660189
0.5635458
0.5771105
0.5745282
0.5691071
0.5678635
0.567683
0.5665205
0.5664433
0.5769661
0.5750219
0.5695595
0.5673894
0.5674855
0.567089
0.5673117
0.5765407
0.5745
0.5692473
0.5673779
0.5668604
0.5671641
0.567223
0.5757597
0.5740152
0.5693384
0.5669687
0.5669871
0.5676402
0.5662451
0.5748966
0.5726822
0.568687
0.5671579
0.5668577
0.5678941
0.5651881
0.5741569
0.5715729
0.5679348
0.5673811
0.566173
0.5674699
0.565024
0.5735087
0.5703845
0.5675805
0.5672179
0.5664251
0.5672364
0.5680082
0.573207
0.5697243
0.5670976
0.5675053
0.5676699
0.5674308
0.5665825
0.5732348
0.5693097
0.5669088
0.5673744
0.5678625
0.5681153
0.573274
0.5689374
0.5666962
0.5673476
0.5676045
0.5679032
0.5733994
0.5687324
0.5666522
0.5673754
0.5684059
0.5696226
0.5740034
0.5693709
0.567469
0.5673314
0.5684075
0.5692706
0.5709195
0.5748807
0.5709694
0.5684976
0.5673763
0.5669753
0.5681868
0.5662166
0.5755614
0.5724989
0.5698977
0.5678252
0.5674472
0.5683239
0.5703817
0.5760878
0.5736501
0.570729
0.5682644
0.5675519
0.5693999
0.5694483
0.5763734
0.5740372
0.5700198
0.5679118
0.5683539
0.5701895
0.5692243
0.5763054
0.5738565
0.5699454
0.5682504
0.5683827
0.571039
0.5711174
0.5761237
0.5738634
0.5696799
0.5683926
0.569206
0.5709416
0.569575
0.5760005
0.573519
0.5698971
0.5684975
0.5692411
0.56966
0.5676922
0.5759859
0.5735544
0.5700882
0.5689768
0.5685232
0.5679891
0.5644728
0.5761321
0.5735622
0.5704672
0.5693521
0.5682623
0.5665974
0.5624154
0.576349
0.5739887
0.5710836
0.5693891
0.5685362
0.5658895
0.5609052
0.5766591
0.5744766
0.5715691
0.5700693
0.5684346
0.5664952
0.5608733
0.5770158
0.5749958
0.5725557
0.5703235
0.5689756
0.5683125
0.5616819
0.5774344
0.5754705
0.5732477
0.5705019
0.5695042
0.5685366
0.5622531
0.5778876
0.5762354
0.5744199
0.57153
0.5699305
0.568373
0.5629277
0.5782407
0.5768235
0.575361
0.5731641
0.5701621
0.5679381
0.5646414
0.5784496
0.5772722
0.5758431
0.573968
0.5712429
0.5681625
0.5650416
0.5785103
0.5775341
0.5761337
0.5740805
0.5716446
0.5687869
0.5639638
0.5784866
0.5776162
0.5762541
0.5742443
0.5717522
0.5686392
0.5625535
0.5784492
0.5776166
0.5762349
0.5742603
0.5717886
0.5682701
0.5596518
0.5784263
0.5776025
0.5761551
0.5742437
0.5717764
0.5681484
0.558703
0.5784127
0.5775878
0.5760837
0.5742206
0.5717433
0.5680845
0.558061
0.5783978
0.5775423
0.5760539
0.5741939
0.5717048
0.5680204
0.557331
0.5783717
0.5775016
0.5760318
0.574168
0.5716676
0.5679392
0.5573643
0.5783347
0.5774512
0.5760135
0.5741439
0.5716336
0.5676511
0.5574159
0.5783208
0.5774331
0.575995
0.5741223
0.5716029
0.5675935
0.5574702
0.5783017
0.5771054
0.5755491
0.5740908
0.5715734
0.5675528
0.557522
0.5782749
0.5770926
0.5755347
0.5740738
0.5715395
0.5673314
0.5575779
0.5782651
0.577081
0.5755196
0.5740564
0.5715111
0.5672201
0.5576391
0.5782579
0.5770714
0.575506
0.5740398
0.571486
0.5671912
0.5576899
0.5782502
0.5770622
0.5754931
0.5740238
0.5714588
0.5671643
0.5577429
0.5782428
0.5770537
0.575481
0.5740082
0.5713327
0.567129
0.5577869
0.5782373
0.5770457
0.5754694
0.5739936
0.571281
0.567101
0.5578327
0.578232
0.577038
0.5754586
0.57398
0.5712641
0.5670785
0.55788
0.578227
0.5770309
0.5754483
0.573967
0.5712478
0.5670571
0.5579209
0.5782222
0.5770241
0.5754385
0.5739548
0.5712325
0.5670366
0.557961
0.5782179
0.5770178
0.5754294
0.5739431
0.5712181
0.5670173
0.5579938
0.5782138
0.5770116
0.5754205
0.5739295
0.5711533
0.5669986
0.558021
0.5782099
0.5770055
0.5754122
0.5739169
0.5710764
0.5669809
0.5580474
0.5782061
0.5769997
0.5754043
0.5739067
0.5710664
0.5669642
0.5580736
0.5782025
0.5769941
0.5753966
0.5738968
0.571057
0.5669485
0.5580816
0.5781989
0.5769888
0.5753892
0.5738874
0.5710483
0.566934
0.5580474
0.5781953
0.5769834
0.575382
0.573878
0.57104
0.5668964
0.5579342
0.5781914
0.5769778
0.5753748
0.5738688
0.5710161
0.5668345
0.5578169
0.578187
0.5769718
0.5753655
0.573843
0.5709753
0.5667726
0.5576953
0.5781816
0.5769639
0.5753326
0.5737994
0.5709344
0.5667108
0.5575731
0.5781744
0.5769363
0.575297
0.5737553
0.5708933
0.5666489
0.5574452
0.5781508
0.5769056
0.5752592
0.5737104
0.5708536
0.5665836
0.5573156
0.5781238
0.5768738
0.5752204
0.5736674
0.5708662
0.5665142
0.5571828
0.5780949
0.5768408
0.5751808
0.5736217
0.5708158
0.5664445
0.5570446
0.5780643
0.5768068
0.5751407
0.5735761
0.5707635
0.5663745
0.5569001
0.5780321
0.5767724
0.5751005
0.5735305
0.5707109
0.5663042
0.5567288
0.5780001
0.5767387
0.5750607
0.5734861
0.5706583
0.5662337
0.5565057
0.5779693
0.5767051
0.5750213
0.5734427
0.5706059
0.5661625
0.5561958
0.004930941
0
0
0
0
1.755962e-33
8.624001e-39
2.220457e-44
4.577105e-50
6.526208e-56
7.002793e-62
5.820695e-68
3.758876e-74
1.890675e-80
1.049061e-86
4.372335e-93
1.628184e-99
5.060427e-106
0.01054928
2.725296e-10
7.037292e-17
1.248674e-22
2.366558e-28
5.916312e-34
1.455354e-39
3.70745e-45
9.173863e-51
1.49172e-56
1.745575e-62
1.518435e-68
1.011229e-74
5.228532e-81
2.872566e-87
1.288491e-93
5.220306e-100
1.793003e-106
0.01183917
4.220603e-09
1.082764e-15
5.157229e-22
5.037805e-28
9.943057e-34
2.19273e-39
5.089043e-45
1.028795e-50
1.51717e-56
1.690051e-62
1.439798e-68
9.354226e-75
4.710393e-81
2.762814e-87
1.15707e-93
4.71127e-100
1.637952e-106
0.01266113
5.845673e-09
2.514337e-15
1.198132e-21
1.036708e-27
1.983087e-33
4.302647e-39
9.869562e-45
1.955466e-50
2.850657e-56
3.130672e-62
2.616442e-68
1.669025e-74
8.270581e-81
4.686468e-87
1.97444e-93
8.02961e-100
2.792632e-106
0.01373238
6.803631e-09
4.066736e-15
2.164419e-21
1.891937e-27
3.734511e-33
8.382873e-39
1.95816e-44
3.921939e-50
5.765855e-56
6.419488e-62
5.363632e-68
3.386443e-74
1.672516e-80
0
1.029815e-93
7.475037e-100
3.468654e-106
0.01502999
9.336735e-09
6.674075e-15
3.961687e-21
3.485207e-27
7.04093e-33
1.649837e-38
3.961304e-44
8.088385e-50
1.224819e-55
1.392371e-61
1.185524e-67
7.496557e-74
3.76762e-80
1.511002e-86
8.189086e-93
3.751739e-99
1.476609e-105
0.01651225
1.448063e-08
1.193108e-14
7.824063e-21
6.769488e-27
1.35898e-32
3.321524e-38
8.285349e-44
1.741826e-49
2.730892e-55
3.198278e-61
2.780996e-67
1.809726e-73
9.281625e-80
4.184355e-86
2.314761e-92
1.134406e-98
4.823968e-105
0.0180824
2.326211e-08
2.1659e-14
1.58995e-20
1.36627e-26
2.719738e-32
6.881621e-38
1.77648e-43
3.853483e-49
6.347755e-55
7.736904e-61
6.97138e-67
4.686616e-73
2.554346e-79
1.237346e-85
7.395971e-92
3.901192e-98
1.80748e-104
0.01918669
3.835569e-08
4.226445e-14
3.403137e-20
2.830653e-26
5.545886e-32
1.474552e-37
3.975537e-43
8.946718e-49
1.544985e-54
1.979796e-60
1.864455e-66
1.325438e-72
7.668598e-79
4.064167e-85
2.661906e-91
1.530664e-97
7.789683e-104
0.02026357
6.778595e-08
1.012266e-13
8.50801e-20
6.523908e-26
1.178657e-31
3.224961e-37
9.151678e-43
2.161575e-48
3.952805e-54
5.414747e-60
5.395881e-66
4.10619e-72
2.552965e-78
1.506521e-84
1.094702e-90
6.830925e-97
3.82475e-103
0.02148157
1.066279e-07
2.736331e-13
3.115071e-19
2.171091e-25
2.906252e-31
7.456123e-37
2.22319e-42
5.491027e-48
1.075958e-53
1.571933e-59
1.67712e-65
1.368561e-71
9.375736e-78
6.159328e-84
5.030939e-90
3.357876e-96
2.073697e-102
0.02257337
1.061148e-07
3.845277e-13
6.326134e-19
5.353151e-25
6.956323e-31
1.78679e-36
5.652979e-42
1.491618e-47
3.191696e-53
5.006367e-59
5.735754e-65
5.085348e-71
3.853948e-77
2.864724e-83
2.559963e-89
1.864305e-95
1.261965e-101
0.02370877
9.751622e-08
3.615188e-13
6.689877e-19
7.445065e-25
1.36296e-30
4.109797e-36
1.490864e-41
4.408526e-47
1.047606e-52
1.790269e-58
2.229056e-64
2.157441e-70
1.827498e-76
1.528753e-82
1.482344e-88
1.157648e-94
8.692542e-101
0.02502737
1.265792e-07
6.276328e-13
1.344446e-18
1.771245e-24
4.137236e-30
1.722399e-35
7.08741e-41
2.048947e-46
4.969896e-52
9.030395e-58
1.180963e-63
1.226661e-69
1.132117e-75
1.033166e-81
1.105374e-87
9.251703e-94
7.543563e-100
0.03044785
9.062901e-08
4.434363e-13
1.120779e-18
2.396775e-24
9.489141e-30
4.657807e-35
2.140361e-40
7.778685e-46
2.262581e-51
4.662744e-57
6.995076e-63
8.343334e-69
8.494484e-75
8.699985e-81
9.380838e-87
8.729565e-93
7.709134e-99
0.03192593
0
5.980384e-13
1.44679e-18
2.958934e-24
8.16006e-30
3.285682e-35
1.49919e-40
5.89146e-46
1.912764e-51
4.449548e-57
7.658017e-63
1.090604e-68
1.412494e-74
1.768224e-80
2.303978e-86
2.478352e-92
2.532421e-98
0.03398518
2.663224e-07
0
2.206977e-18
6.823199e-24
2.894743e-29
1.154442e-34
4.071915e-40
1.285296e-45
3.738941e-51
8.554095e-57
1.529537e-62
2.425989e-68
3.744222e-74
5.899389e-80
9.047584e-86
1.205839e-91
1.442867e-97
0.03624612
3.495323e-07
2.395225e-12
0
9.022449e-24
5.740205e-29
3.329637e-34
1.329069e-39
4.153343e-45
1.211062e-50
2.765968e-56
4.812649e-62
7.341562e-68
1.137231e-73
1.878481e-79
3.167837e-85
4.502481e-91
5.732007e-97
0.03867323
4.505969e-07
3.621473e-12
1.481935e-17
0
8.386725e-29
7.691681e-34
4.91992e-39
1.74828e-44
4.915146e-50
1.096271e-55
1.955886e-61
3.106717e-67
5.066553e-73
9.139536e-79
1.602486e-84
2.537427e-90
3.388201e-96
0.04109702
5.754806e-07
5.37675e-12
2.528327e-17
8.120065e-23
0
1.531358e-33
1.449526e-38
7.675673e-44
2.760045e-49
6.274157e-55
1.077311e-60
1.676678e-66
2.604531e-72
8.674346e-78
9.812404e-84
1.917373e-89
2.429216e-95
0.0435143
7.212556e-07
7.840673e-12
4.251769e-17
1.482256e-22
6.129209e-28
0
1.767349e-38
1.156661e-43
5.878448e-49
1.929498e-54
4.200536e-60
7.713051e-66
1.414708e-71
6.115225e-77
4.826379e-83
1.292098e-88
1.550512e-94
0.04601771
8.982401e-07
1.137171e-11
7.080897e-17
2.793815e-22
1.244835e-27
9.37228e-33
0
2.365743e-43
1.73507e-48
7.671667e-54
2.135824e-59
4.284032e-65
8.255122e-71
2.125526e-76
3.51755e-82
6.462683e-88
7.888309e-94
0.04866876
1.108965e-06
1.624611e-11
1.173283e-16
5.358849e-22
2.745181e-27
2.305619e-32
1.821428e-37
0
4.875048e-48
2.466798e-53
9.549336e-59
2.648131e-64
5.660199e-70
1.76829e-75
2.747346e-81
5.590674e-87
7.352483e-93
0.05146255
1.373383e-06
2.329122e-11
1.948569e-16
1.026952e-21
6.036805e-27
5.665248e-32
4.890498e-37
3.094747e-42
0
7.117365e-53
3.370319e-58
1.314882e-63
3.59686e-69
9.685515e-75
1.906563e-80
4.26292e-86
5.965851e-92
0.05446824
1.6994e-06
3.354162e-11
3.227559e-16
1.950293e-21
1.307715e-26
1.3782e-31
1.30606e-36
8.985703e-42
5.847621e-47
0
1.018549e-57
5.549326e-63
2.27774e-68
8.334493e-74
1.487824e-79
2.998127e-85
4.050045e-91
0.05758784
2.083954e-06
4.77309e-11
5.300911e-16
3.675466e-21
2.793987e-26
3.294021e-31
3.433566e-36
2.579862e-41
1.828975e-46
1.017102e-51
0
1.776552e-62
1.269737e-67
1.265729e-72
1.252925e-78
2.353673e-84
2.742636e-90
0.06093256
2.571858e-06
6.84977e-11
8.776012e-16
6.964038e-21
5.966068e-26
7.841167e-31
9.041874e-36
7.436777e-41
5.766661e-46
3.506916e-51
1.920382e-56
0
3.285763e-67
1.193747e-72
4.528108e-78
1.005664e-83
1.622282e-89
0.06449773
3.162375e-06
9.810048e-11
1.456973e-15
1.325615e-20
1.281746e-25
1.904578e-30
2.456103e-35
2.218619e-40
1.895302e-45
1.275018e-50
7.646633e-56
4.514618e-61
0
6.0426e-72
2.363446e-77
6.396298e-83
1.298691e-88
0.06823382
3.882707e-06
1.401642e-10
2.43478e-15
2.54362e-20
2.738275e-25
4.58382e-30
6.565814e-35
6.489138e-40
6.116607e-45
4.486309e-50
2.95067e-55
1.891623e-60
3.80046e-65
3.949869e-71
4.084596e-76
8.051766e-82
1.800087e-87
0.07227484
4.764726e-06
2.003672e-10
4.162594e-15
5.200761e-20
6.084819e-25
1.16296e-29
1.796627e-34
1.934465e-39
2.031592e-44
1.649424e-49
1.216968e-54
8.787247e-60
2.43055e-64
8.997841e-70
0
3.126831e-81
2.489743e-86
0.0765538
5.803359e-06
2.793202e-10
6.733793e-15
1.711093e-19
1.69306e-24
3.635208e-29
4.767933e-34
4.329091e-39
6.040801e-44
6.453449e-49
4.431886e-54
3.041081e-59
3.049066e-64
1.630874e-69
7.633477e-75
2.565739e-80
9.85187e-85
0.0810511
6.957533e-06
3.589786e-10
8.491807e-15
1.23197e-19
2.090004e-24
4.586374e-29
8.706331e-34
1.294191e-38
2.322359e-43
2.988735e-48
2.210027e-53
1.770054e-58
1.736569e-63
1.642062e-68
6.190953e-74
2.186817e-79
9.642928e-84
0.08596887
8.101952e-06
4.462159e-10
8.948931e-15
1.847096e-19
4.402211e-24
1.075456e-28
2.064364e-33
3.524229e-38
4.014784e-43
4.701169e-48
5.189323e-53
7.687805e-58
0
8.983901e-68
3.969451e-73
3.381545e-78
0
0.09158089
9.038614e-06
5.880159e-10
1.398591e-14
2.245767e-19
5.066883e-24
1.372777e-28
3.303229e-33
6.33105e-38
8.340702e-43
1.160271e-47
1.404292e-52
2.377251e-57
2.875544e-62
2.492107e-67
2.254621e-72
1.504048e-76
9.459362e-83
0.1076408
1.727211e-05
1.57961e-09
6.041545e-14
2.078906e-21
2.185323e-23
5.57121e-28
1.25622e-32
0
6.076878e-42
1.313632e-46
1.258873e-51
7.460275e-56
3.491062e-61
2.730212e-66
3.051215e-71
6.531021e-76
3.087042e-81
0.1177669
2.458982e-05
2.677733e-09
1.262518e-13
2.769357e-18
5.626339e-23
1.773582e-27
0
1.655098e-36
4.516554e-41
6.45725e-46
7.855248e-51
2.969448e-55
2.79208e-60
3.930985e-65
1.257405e-69
0
6.1289e-80
0.1350681
3.089329e-05
3.47868e-09
1.777075e-13
4.32703e-18
1.094348e-22
3.910481e-27
1.088759e-31
3.013003e-36
6.676094e-41
1.451279e-45
3.839941e-50
7.741588e-55
2.067419e-59
3.431226e-64
3.516566e-68
1.332229e-73
1.059712e-78
0.2337872
7.641781e-05
1.172862e-08
8.713984e-13
2.117323e-17
4.300695e-22
1.281348e-26
3.292986e-31
9.231434e-36
2.539817e-40
7.556712e-45
3.155194e-49
7.667534e-54
2.471081e-58
1.371997e-62
2.732038e-67
2.693152e-72
1.586034e-77
0.3656937
0.0001156187
1.070959e-08
9.047463e-13
1.424533e-17
1.652203e-22
4.937766e-27
1.170658e-31
4.640354e-36
2.155303e-40
1.033754e-44
1.974129e-48
2.552998e-53
6.000832e-58
3.536772e-62
0
8.304283e-72
1.414001e-76
0.4609517
0.0003972477
6.001677e-08
3.03101e-12
1.730187e-17
1.098205e-22
4.256541e-27
2.267628e-31
1.653865e-35
8.71398e-40
3.953454e-44
1.131806e-47
9.743044e-53
2.487895e-57
2.816282e-61
2.487121e-66
1.957958e-71
5.586e-76
0.5197526
0.00156316
2.505324e-07
2.559745e-12
6.851649e-18
9.112956e-22
7.611298e-26
5.144942e-30
4.129923e-34
2.421474e-38
1.828892e-42
0
4.617698e-51
4.187453e-55
1.169251e-60
6.410433e-64
5.758984e-69
2.235784e-73
0.5297977
0.001034591
6.325769e-08
1.537425e-13
2.813407e-17
5.376934e-21
6.34663e-25
4.527622e-29
5.369484e-33
5.96426e-37
8.831837e-41
2.403395e-44
2.829847e-48
7.003392e-53
1.407504e-56
1.044623e-60
5.27653e-66
2.384785e-71
0.5358364
0.0009369883
2.385168e-09
1.649571e-14
6.636035e-18
1.579701e-21
9.165685e-25
3.76605e-28
1.823518e-31
7.394215e-35
2.387253e-38
7.109569e-42
1.722046e-45
8.511276e-50
1.128224e-53
1.240468e-57
0
0
0.5396808
0.00153875
1.388803e-08
2.653227e-13
1.634181e-16
6.656316e-20
6.5178e-23
3.270607e-26
2.10176e-29
1.014132e-32
2.658162e-36
1.326785e-39
4.396542e-43
1.421018e-46
7.44585e-51
9.221074e-55
0
3.459799e-64
0.5437276
0.001372446
2.333911e-09
3.072988e-13
5.702628e-16
5.515988e-19
9.408311e-22
9.295929e-25
1.028955e-27
1.065179e-30
1.22349e-33
4.339177e-37
1.106266e-40
4.313828e-44
3.222136e-48
2.572534e-52
1.623643e-56
2.227564e-61
0.5465841
0.001117369
3.622232e-09
6.833662e-12
3.090918e-14
4.680205e-17
7.624409e-20
1.109313e-22
1.213871e-25
1.980929e-28
4.004253e-31
1.245825e-34
1.13197e-37
1.000467e-41
6.822534e-46
6.143372e-50
3.072299e-54
6.770755e-59
0.5527997
0.002863111
4.237913e-07
5.16215e-10
1.790664e-12
5.617744e-15
8.684815e-18
1.335813e-20
2.146864e-23
1.849987e-26
4.099899e-29
1.631806e-32
1.076618e-35
3.088127e-40
1.646225e-43
1.648487e-47
1.947305e-52
0
0.5582238
0.03285393
2.919846e-05
2.276064e-08
6.242688e-11
3.923323e-13
4.974037e-16
1.008181e-18
2.497397e-21
3.277407e-24
3.673498e-27
4.967171e-31
7.82857e-34
1.085054e-37
1.433043e-41
1.392183e-45
1.389235e-50
7.116798e-55
0.5611688
0.08258384
0.000152134
6.849885e-07
6.925196e-09
3.620554e-11
4.89772e-14
9.28795e-17
1.405937e-19
1.049048e-22
1.229207e-25
1.16587e-28
6.278058e-32
0
2.797045e-40
0
8.171643e-49
0
0.5641735
0.1883803
0.000806681
6.255722e-06
0
6.632931e-23
7.242241e-26
0
0
5.892241e-36
2.071504e-40
6.083815e-44
4.502317e-49
2.364782e-53
0.5648161
0.5133736
0
8.133281e-30
1.568344e-35
1.216319e-37
0
4.891628e-45
0
0
0.5632727
0
4.18614e-33
5.498621e-37
0
1.474189e-46
2.023971e-50
2.341001e-55
4.960482e-32
1.960899e-37
4.454167e-42
2.518345e-46
0
9.580725e-56
2.288156e-37
0
0
5.064166e-50
4.913568e-55
6.874019e-40
5.594182e-44
2.671024e-47
0
1.952311e-56
3.372408e-41
6.125194e-45
3.383494e-49
1.287989e-53
5.661102e-58
5.086873e-43
4.933618e-47
4.144824e-51
1.14933e-55
1.353526e-60
5.543342e-41
6.683895e-45
1.889501e-49
1.323218e-53
1.641692e-58
7.068618e-39
1.286716e-42
4.332112e-47
0
8.477341e-57
0
5.087243e-37
4.799817e-41
2.293766e-45
4.531906e-50
1.642125e-56
0.5672343
0
2.583673e-37
3.209258e-41
4.271314e-46
1.282883e-50
1.417698e-55
0.5653386
0.523067
1.914065e-29
8.701891e-34
5.401052e-37
1.944488e-41
2.719981e-46
1.377449e-51
4.163624e-57
0.5640687
0.2689691
0.001094628
0
0
2.706172e-29
3.706986e-33
1.509348e-37
7.491733e-42
4.484921e-47
7.490641e-52
2.398534e-57
0.5598308
0.1107841
0.0003340699
2.859318e-06
3.163566e-08
1.768079e-10
4.547563e-13
4.10038e-16
1.20957e-19
1.406624e-22
2.11493e-25
7.595422e-29
1.237124e-32
6.635355e-37
1.306444e-41
4.722674e-46
5.274287e-51
9.931525e-57
0.555086
0.03969156
4.973415e-05
1.699741e-07
6.353539e-10
2.190879e-12
3.138356e-15
3.718019e-18
4.178323e-21
3.092036e-24
2.228887e-27
6.017837e-31
4.797317e-35
4.998251e-39
1.151897e-43
4.898396e-48
3.155842e-53
5.839486e-58
0.553349
0.01358792
4.812908e-06
5.866916e-09
8.676655e-12
1.443538e-14
2.312657e-17
2.707537e-20
2.458704e-23
9.763447e-27
3.314377e-30
1.490254e-33
1.701393e-37
8.212034e-42
5.429105e-46
5.604019e-51
2.921371e-55
0
0.5492194
0.002152833
1.570382e-07
1.020816e-10
2.010878e-13
2.927206e-16
3.135306e-19
2.31174e-22
1.338105e-25
8.534593e-29
1.081159e-32
7.083116e-36
5.964532e-40
8.896912e-44
2.513024e-48
8.861297e-53
3.421907e-58
1.456213e-62
0.5428415
0.001165434
4.719477e-09
1.042026e-12
1.636052e-15
1.147026e-18
1.170348e-21
8.485161e-25
4.150698e-28
2.048234e-31
4.438512e-35
1.297235e-38
0
2.003721e-46
2.970934e-50
1.933687e-55
2.249377e-59
0
0.5419104
0.001174081
7.665187e-08
8.1893e-12
1.462517e-15
3.117882e-19
6.215729e-23
1.146874e-26
2.481075e-30
6.219688e-34
1.398148e-37
2.552083e-41
3.401197e-45
1.015205e-49
4.137898e-53
2.487176e-57
9.934037e-63
1.280042e-66
0.5390664
0.001882975
3.292696e-07
1.073867e-11
3.150053e-16
1.155901e-20
6.870961e-25
5.878796e-29
6.613362e-33
8.337515e-37
1.512573e-40
4.564e-45
3.147176e-48
0
2.183689e-56
1.627042e-60
6.274083e-65
4.550075e-70
0.5315769
0.002117666
3.888937e-07
2.355378e-11
6.1031e-16
6.391746e-21