/*--------------------------------*- C++ -*----------------------------------*\
| =========                 |                                                 |
| \\      /  F ield         | OpenFOAM: The Open Source CFD Toolbox           |
|  \\    /   O peration     | Version:  2206                                  |
|   \\  /    A nd           | Website:  www.openfoam.com                      |
|    \\/     M anipulation  |                                                 |
\*---------------------------------------------------------------------------*/
FoamFile
{
    version     2.0;
    format      ascii;
    arch        "LSB;label=32;scalar=64";
    class       volScalarField;
    location    "1.8";
    object      alpha.b;
}
// * * * * * * * * * * * * * * * * * * * * * * * * * * * * * * * * * * * * * //

dimensions      [0 0 0 0 0 0 0];

internalField   nonuniform List<scalar> 
13078
(
0.4788737
0.4368682
0.4192507
0.4189148
0.4194549
0.4201771
0.4210262
0.4329988
0.4192186
0.4182604
0.4187766
0.4194165
0.4201511
0.4210039
0.4174865
0.4175044
0.4180439
0.4186761
0.4193551
0.4201104
0.4209723
0.4166248
0.4173129
0.4179499
0.4185961
0.4192962
0.4200674
0.4209373
0.4165647
0.417254
0.4178915
0.4185497
0.4192482
0.4200269
0.4209029
0.4165998
0.4172462
0.4178651
0.4185202
0.4192227
0.4199933
0.4208707
0.4166359
0.4172543
0.4178544
0.4185021
0.419205
0.4199774
0.4208431
0.4166618
0.4172662
0.4178508
0.418493
0.4191949
0.4199663
0.420832
0.4166801
0.4172771
0.4178535
0.4184906
0.4191895
0.4199591
0.4208239
0.4166932
0.4172861
0.4178575
0.4184904
0.4191867
0.4199544
0.4208182
0.4167028
0.4172933
0.4178614
0.4184914
0.4191854
0.4199514
0.4208138
0.4167105
0.4172987
0.4178648
0.4184927
0.419185
0.4199493
0.4208103
0.4167165
0.4173033
0.4178678
0.4184941
0.4191849
0.4199477
0.4208075
0.4167215
0.4173071
0.4178704
0.4184952
0.4191847
0.4199464
0.4208049
0.4167258
0.4173102
0.4178724
0.4184925
0.4191792
0.4199446
0.4208025
0.4167296
0.417313
0.4178739
0.4184887
0.4191752
0.419943
0.4208
0.4167332
0.4173157
0.4178757
0.418489
0.4191747
0.4199416
0.4207975
0.4167367
0.4173181
0.4178773
0.4184895
0.4191741
0.4199402
0.4207949
0.4167402
0.4173205
0.4178787
0.4184899
0.4191733
0.4199381
0.4207922
0.4167437
0.4173228
0.4178801
0.4184897
0.4191668
0.4199282
0.4207885
0.4167474
0.4173253
0.4178815
0.4184895
0.4191591
0.4199204
0.4207846
0.4167514
0.417328
0.4178831
0.4184899
0.4191573
0.4199177
0.4207813
0.4167557
0.4173307
0.4178847
0.4184901
0.4191561
0.4199146
0.4207767
0.4167604
0.4173339
0.4178864
0.4184903
0.419154
0.4199036
0.4207607
0.4167658
0.4173374
0.4178885
0.4184905
0.4191518
0.4198907
0.4207478
0.4167717
0.4173413
0.4178907
0.4184908
0.4191501
0.4198856
0.4207415
0.4167786
0.4173458
0.4178932
0.418491
0.4191482
0.4198812
0.4207343
0.4167863
0.4173507
0.4178959
0.4184914
0.4191458
0.4198757
0.4207157
0.4167951
0.4173565
0.4178991
0.4184917
0.4191432
0.4198696
0.4206939
0.4168034
0.4173612
0.417902
0.4184919
0.4191406
0.4198641
0.4206832
0.4168134
0.417367
0.4179054
0.4184921
0.4191375
0.419858
0.420673
0.4168254
0.4173713
0.4179041
0.4184911
0.4191342
0.4198515
0.4206625
0.4168382
0.4173754
0.4179001
0.4184818
0.4191274
0.419842
0.4206505
0.4168508
0.4173793
0.4178935
0.4184708
0.4191116
0.4198201
0.4206258
0.4168602
0.4173755
0.4178736
0.4184282
0.4190524
0.4197623
0.4205707
0.4168594
0.4173469
0.4178105
0.4183251
0.4189259
0.4196375
0.4204742
0.4168337
0.4172602
0.4176667
0.418149
0.4187366
0.419494
0.4203822
0.4167539
0.4170812
0.4174375
0.4179242
0.4185475
0.419362
0.4203656
0.4165848
0.4168192
0.4171695
0.4177022
0.4183981
0.4192696
0.4204449
0.4162986
0.4165092
0.4169045
0.417499
0.4182779
0.4192509
0.4205614
0.4159042
0.4161863
0.4166076
0.4172914
0.4181378
0.4191852
0.4205738
0.4154042
0.4158538
0.4163021
0.4169908
0.4178865
0.4190064
0.4205879
0.4148361
0.4154996
0.415976
0.4166117
0.4174324
0.4187906
0.4206277
0.4142676
0.4152044
0.4156029
0.41617
0.4170795
0.4186199
0.42073
0.4138183
0.4149671
0.4152651
0.4158476
0.4169524
0.4185849
0.4205921
0.413574
0.4147693
0.4150548
0.4158143
0.4170081
0.4186001
0.4205257
0.4133734
0.4145564
0.4151117
0.4160298
0.4172262
0.4187457
0.4204487
0.4130289
0.4143695
0.4152108
0.4163232
0.417485
0.4189259
0.4206054
0.4126681
0.4142697
0.4152778
0.416525
0.4177737
0.4192239
0.4208749
0.4123995
0.4141993
0.4153317
0.416721
0.4181129
0.4196751
0.4212491
0.4122946
0.4141096
0.4153502
0.4170023
0.4185535
0.4202181
0.4218391
0.412354
0.4141141
0.4154843
0.4172632
0.4189371
0.4206246
0.4224269
0.4125132
0.4141951
0.4157308
0.4175626
0.4192872
0.4209511
0.4228238
0.4126961
0.4142814
0.4158867
0.4178046
0.4195751
0.4212735
0.422962
0.4128845
0.4143813
0.4160301
0.4179811
0.4197553
0.4214256
0.4230725
0.4130641
0.4144638
0.4161113
0.4180505
0.4198232
0.4214722
0.4231056
0.4131168
0.4144894
0.4161084
0.4180233
0.4197802
0.4214265
0.4230706
0.4130516
0.4144702
0.4160339
0.4179048
0.4196368
0.4212954
0.4229313
0.4130037
0.4144672
0.4159339
0.4177151
0.4194112
0.4210688
0.4226805
0.4129875
0.414496
0.4158449
0.4174966
0.4191007
0.4207057
0.4224282
0.4129968
0.4145401
0.4156958
0.4172852
0.4188081
0.420432
0.4221303
0.4130704
0.4146283
0.4156581
0.4171415
0.4185534
0.4201444
0.421711
0.4132916
0.4147782
0.4156765
0.4169151
0.4182329
0.4197667
0.4213602
0.413629
0.4148478
0.4155735
0.4166892
0.4179623
0.4195162
0.4212213
0.4139995
0.4148957
0.4154268
0.4164599
0.417767
0.4194506
0.4212509
0.414265
0.4150146
0.4153633
0.416284
0.417687
0.4195031
0.4213286
0.4144505
0.4152108
0.4154677
0.416274
0.4176681
0.4194451
0.4213733
0.4147503
0.4154827
0.4158195
0.4164659
0.4176702
0.4193773
0.4212794
0.4151895
0.4157833
0.4161891
0.4167918
0.4177875
0.4192807
0.4212076
0.4156456
0.4160807
0.4165324
0.4171604
0.4180048
0.4193117
0.4210226
0.4160571
0.4163687
0.41681
0.4174489
0.4182674
0.4193595
0.4208623
0.4163953
0.4166252
0.4170328
0.4176565
0.4184272
0.4193892
0.4206539
0.416639
0.4168808
0.4172544
0.4178038
0.4185103
0.4193853
0.420564
0.4167897
0.4171113
0.4174744
0.4179758
0.418613
0.4193961
0.4204571
0.4168599
0.4172734
0.4176761
0.4181615
0.4187533
0.4194995
0.4204144
0.4168821
0.4173576
0.4178138
0.4183228
0.4189163
0.4196349
0.4204734
0.4168805
0.4173871
0.4178786
0.4184188
0.4190372
0.4197452
0.4205574
0.4168687
0.4173906
0.417898
0.4184637
0.4190971
0.419811
0.4206146
0.4168539
0.4173852
0.4179013
0.4184813
0.4191252
0.4198359
0.4206408
0.4168391
0.4173775
0.4179029
0.4184853
0.419131
0.4198455
0.420653
0.4168245
0.4173718
0.4179052
0.4184923
0.419135
0.4198517
0.4206621
0.4168119
0.4173664
0.4179054
0.4184922
0.4191374
0.4198574
0.4206718
0.4168018
0.41736
0.4179013
0.4184913
0.4191397
0.419863
0.4206816
0.4167934
0.4173551
0.417898
0.4184906
0.4191421
0.4198682
0.420692
0.4167846
0.4173492
0.4178946
0.41849
0.4191444
0.419874
0.4207137
0.416777
0.4173442
0.4178917
0.4184897
0.4191466
0.4198795
0.4207324
0.4167703
0.4173398
0.4178892
0.4184895
0.4191486
0.4198839
0.4207398
0.4167645
0.4173361
0.4178872
0.4184893
0.4191504
0.4198892
0.4207463
0.4167593
0.4173328
0.4178854
0.4184891
0.4191528
0.4199024
0.4207594
0.4167547
0.4173298
0.4178837
0.4184891
0.419155
0.4199134
0.4207756
0.4167506
0.4173272
0.4178823
0.418489
0.4191563
0.4199167
0.4207802
0.4167469
0.4173247
0.4178808
0.4184889
0.4191584
0.4199196
0.4207838
0.4167434
0.4173224
0.4178797
0.4184894
0.4191665
0.4199277
0.420788
0.4167401
0.4173203
0.4178786
0.4184898
0.4191731
0.4199379
0.4207919
0.4167369
0.4173182
0.4178774
0.4184895
0.419174
0.41994
0.4207946
0.4167338
0.4173161
0.4178761
0.4184892
0.4191747
0.4199415
0.4207972
0.4167306
0.4173139
0.4178746
0.4184892
0.4191754
0.4199429
0.4207998
0.4167273
0.4173116
0.4178734
0.4184932
0.4191796
0.4199445
0.4208022
0.4167238
0.417309
0.4178719
0.4184961
0.4191851
0.4199464
0.4208045
0.4167197
0.417306
0.4178698
0.4184952
0.4191853
0.4199475
0.4208068
0.416715
0.4173022
0.4178672
0.4184939
0.4191852
0.4199487
0.4208091
0.416709
0.4172977
0.4178643
0.4184926
0.4191853
0.4199501
0.4208118
0.4167016
0.4172923
0.4178609
0.4184913
0.4191857
0.4199521
0.4208151
0.416692
0.4172853
0.4178571
0.4184904
0.4191869
0.419955
0.4208193
0.4166792
0.4172763
0.4178534
0.4184904
0.4191894
0.4199596
0.4208252
0.4166612
0.4172656
0.4178534
0.4184948
0.419195
0.4199669
0.4208334
0.4166355
0.4172537
0.4178558
0.4185044
0.4192055
0.4199778
0.4208576
0.4165997
0.4172451
0.4178641
0.4185196
0.4192215
0.4200053
0.4208864
0.4165648
0.4172526
0.41789
0.4185464
0.4192578
0.4200397
0.4209181
0.4166233
0.4173108
0.4179417
0.4186032
0.4193062
0.4200793
0.4209526
0.4174395
0.4174802
0.4180491
0.4186823
0.4193634
0.4201222
0.4209877
0.4320117
0.4188966
0.4181782
0.4187786
0.4194292
0.4201664
0.4210218
0.422033
0.4232962
0.4249798
0.4265793
0.4294202
0.4338737
0.4440135
0.4220095
0.423267
0.4249431
0.4265366
0.4293681
0.4338014
0.4435897
0.4219805
0.4232352
0.4249024
0.4270904
0.429318
0.4337315
0.4433614
0.421949
0.4232023
0.4248662
0.4264411
0.4292653
0.4336611
0.443153
0.4219176
0.4231685
0.4248264
0.4263946
0.4292123
0.4335908
0.4430028
0.4218869
0.4231345
0.4247861
0.4263474
0.42916
0.4335209
0.4428597
0.4218577
0.4231014
0.4247465
0.4263023
0.4291444
0.4334513
0.4427232
0.421832
0.4230693
0.4247077
0.4262584
0.42913
0.4333823
0.4425923
0.4218232
0.4230404
0.424671
0.4262143
0.4290879
0.4333203
0.4424644
0.4218164
0.4230314
0.4246373
0.4261706
0.4290466
0.4332585
0.4423411
0.421811
0.4230246
0.4246274
0.4261286
0.4290054
0.4331967
0.4422214
0.4218063
0.4230184
0.4246197
0.4261192
0.4289641
0.4331348
0.4421046
0.4218022
0.4230125
0.4246121
0.4261104
0.4289565
0.4330715
0.4419916
0.4217983
0.4230069
0.4246044
0.4261014
0.428948
0.4330589
0.4418936
0.4217945
0.4230011
0.4245965
0.4260921
0.4289389
0.433044
0.4419242
0.4217906
0.4229951
0.4245884
0.4260823
0.428929
0.4330278
0.4419487
0.4217867
0.422989
0.4245801
0.4260718
0.4289135
0.4330108
0.4419639
0.4217826
0.4229828
0.4245712
0.4260564
0.4287943
0.4329925
0.4419956
0.4217783
0.4229765
0.424562
0.4260449
0.4287752
0.4329736
0.4420224
0.4217738
0.4229699
0.4245524
0.4260327
0.4287601
0.4329537
0.4420563
0.4217691
0.422963
0.4245424
0.4260199
0.4287444
0.4329328
0.4421102
0.4217639
0.4229557
0.4245322
0.4260062
0.4287279
0.4329108
0.442151
0.4217586
0.4229479
0.4245211
0.4259939
0.4287063
0.4328879
0.4421955
0.4217514
0.4229394
0.424508
0.4265407
0.4285867
0.4328527
0.4422395
0.4217441
0.4229308
0.4244966
0.4259644
0.4285274
0.432824
0.4422847
0.4217371
0.4229215
0.4244835
0.4259449
0.4285031
0.4327966
0.4423334
0.4217275
0.4229101
0.4244682
0.4259259
0.4284784
0.4327643
0.4423925
0.4217009
0.4228974
0.4244539
0.4259069
0.4284455
0.4325235
0.4424512
0.4216819
0.4225584
0.4240164
0.4258927
0.4284148
0.432429
0.442499
0.421668
0.4225466
0.4239987
0.4258708
0.4283854
0.432389
0.4425497
0.4216311
0.4225049
0.4239812
0.4258482
0.4283533
0.4322146
0.442596
0.4216049
0.4224631
0.4239632
0.4258232
0.4283173
0.4320111
0.4426355
0.4215878
0.4224003
0.423939
0.4257968
0.428278
0.4319494
0.4425959
0.4215654
0.4223709
0.4238842
0.4257716
0.4282361
0.4318456
0.4411654
0.4215253
0.4223323
0.4238252
0.4257536
0.4282038
0.4316448
0.4397584
0.4214781
0.4222783
0.4237596
0.4257958
0.4282326
0.4312583
0.4364568
0.4214979
0.4222903
0.4239168
0.4260049
0.4283614
0.4308322
0.4357703
0.4216522
0.4225072
0.4242721
0.4262367
0.4287323
0.4315969
0.4354237
0.4219476
0.4229586
0.4248473
0.4268711
0.4297148
0.4326678
0.4356703
0.4223141
0.4235615
0.4258116
0.4285545
0.4304747
0.4327265
0.4369227
0.4226713
0.4243389
0.4271872
0.4296388
0.4308654
0.4327831
0.4389417
0.4227828
0.4249032
0.4278835
0.4300769
0.4316266
0.4331254
0.4393752
0.422948
0.4253036
0.428592
0.4305566
0.4323013
0.433492
0.4403061
0.4232476
0.4259337
0.4291706
0.4313895
0.4323982
0.43428
0.4395187
0.4232395
0.4260851
0.4295736
0.4320582
0.4321868
0.4347448
0.4396666
0.4231502
0.4263247
0.4305095
0.4322042
0.4319685
0.4339347
0.4393857
0.4228407
0.4257783
0.4308642
0.432108
0.4315425
0.4337976
0.4362804
0.4229222
0.4255117
0.430917
0.4320418
0.4317653
0.4332311
0.4334051
0.4230643
0.4250256
0.4304691
0.4325717
0.4320348
0.4325252
0.4325461
0.4234818
0.4255431
0.4307875
0.4326127
0.4327923
0.4323221
0.432687
0.4242497
0.4260135
0.4306791
0.4330162
0.4326004
0.4318006
0.433626
0.425098
0.4273259
0.431306
0.4328047
0.433008
0.4315117
0.4345288
0.4258169
0.4284058
0.4319725
0.432452
0.4338274
0.4324122
0.4347112
0.4264387
0.4295391
0.4321491
0.4326132
0.4334198
0.432833
0.4319086
0.4267301
0.4301531
0.4327161
0.4324057
0.4322425
0.4323823
0.4319064
0.4267148
0.4306098
0.4329569
0.4325211
0.4320468
0.4316891
0.4266881
0.4310138
0.4332326
0.4324778
0.4323037
0.4319934
0.426574
0.4312372
0.4333158
0.4325218
0.4314238
0.4302266
0.4259817
0.430617
0.4325115
0.4325762
0.4314892
0.4306249
0.4286093
0.425115
0.4290336
0.4314898
0.4325648
0.4329719
0.4316855
0.4331832
0.4244432
0.4275175
0.430109
0.4321762
0.4325139
0.4311678
0.4292359
0.4239233
0.4263798
0.4293005
0.4317251
0.4321117
0.4299276
0.4303996
0.4236411
0.425994
0.4300085
0.4320554
0.4310749
0.4293504
0.4306543
0.4237096
0.4261747
0.4300823
0.4317024
0.4310181
0.4285843
0.4288788
0.4238893
0.4261642
0.4303373
0.4315256
0.4302204
0.4287702
0.4304138
0.4240109
0.4265033
0.4301122
0.4313848
0.4302381
0.4300563
0.4321939
0.4240248
0.4264659
0.4299129
0.4308758
0.4311014
0.431706
0.4353828
0.4238809
0.4264584
0.429534
0.4305127
0.4315287
0.4331795
0.4374542
0.4236681
0.4260368
0.4289275
0.4305127
0.4312852
0.4339691
0.438958
0.423362
0.4255523
0.4284447
0.4298911
0.4313827
0.4333834
0.4390831
0.4230073
0.4250343
0.4274598
0.4296511
0.4308777
0.4315418
0.4381509
0.4225892
0.4245584
0.4267645
0.429484
0.4304217
0.4313072
0.437559
0.4221322
0.4237908
0.4255923
0.4284627
0.4300345
0.4315437
0.4369745
0.4217724
0.4231955
0.4246508
0.4268331
0.4298148
0.4320013
0.4353045
0.4215574
0.4227386
0.4241642
0.426031
0.4287425
0.4317988
0.4349235
0.4214928
0.4224707
0.4238698
0.4259192
0.4283483
0.4311966
0.4360328
0.4215149
0.4223857
0.4237471
0.4257552
0.4282443
0.4313524
0.4374409
0.4215517
0.4223844
0.4237654
0.4257393
0.4282099
0.4317258
0.4403352
0.4215743
0.4223982
0.4238451
0.4257561
0.4282231
0.4318507
0.4412914
0.4215877
0.4224126
0.4239165
0.4257795
0.4282567
0.4319157
0.4419403
0.4216026
0.4224581
0.4239463
0.4258063
0.4282954
0.4319801
0.4426738
0.4216286
0.4224988
0.4239685
0.4258322
0.4283327
0.4320615
0.4426413
0.4216657
0.4225493
0.4239867
0.4258564
0.4283667
0.4323496
0.4425901
0.4216795
0.4225673
0.4240053
0.425878
0.4283975
0.4324072
0.4425358
0.4216986
0.4228949
0.4244512
0.4259096
0.428427
0.4324479
0.4424839
0.4217253
0.4229077
0.4244657
0.4259266
0.4284609
0.4326692
0.4424278
0.4217352
0.4229193
0.4244807
0.425944
0.4284893
0.4327806
0.4423663
0.4217424
0.4229289
0.4244943
0.4259606
0.4285143
0.4328094
0.4423153
0.42175
0.4229381
0.4245073
0.4259766
0.4285416
0.4328362
0.4422621
0.4217574
0.4229466
0.4245194
0.4259921
0.4286676
0.4328715
0.4422178
0.4217629
0.4229546
0.4245309
0.4260067
0.4287193
0.4328995
0.4421718
0.4217682
0.4229623
0.4245417
0.4260203
0.4287362
0.4329219
0.4421242
0.4217732
0.4229694
0.4245519
0.4260332
0.4287525
0.4329433
0.4420831
0.421778
0.4229761
0.4245617
0.4260454
0.4287677
0.4329638
0.4420428
0.4217823
0.4229824
0.4245708
0.4260571
0.4287821
0.4329831
0.4420097
0.4217864
0.4229886
0.4245797
0.4260707
0.428847
0.4330018
0.4419823
0.4217903
0.4229947
0.424588
0.4260833
0.4289238
0.4330195
0.4419558
0.4217941
0.4230005
0.4245959
0.4260935
0.4289338
0.4330361
0.4419294
0.4217976
0.423006
0.4246035
0.4261034
0.4289432
0.4330518
0.4419213
0.4218012
0.4230114
0.424611
0.4261128
0.4289518
0.4330663
0.4419552
0.4218048
0.4230167
0.4246181
0.4261221
0.4289601
0.4331039
0.4420682
0.4218088
0.4230224
0.4246253
0.4261313
0.4289841
0.4331657
0.4421853
0.4218132
0.4230283
0.4246346
0.4261572
0.4290248
0.4332276
0.4423067
0.4218185
0.4230362
0.4246675
0.4262007
0.4290658
0.4332893
0.4424287
0.4218258
0.4230638
0.4247031
0.4262449
0.4291069
0.4333513
0.4425564
0.4218493
0.4230946
0.424741
0.4262897
0.4291465
0.4334165
0.4426859
0.4218764
0.4231263
0.4247797
0.4263327
0.4291339
0.4334859
0.4428184
0.4219052
0.4231594
0.4248193
0.4263785
0.4291843
0.4335556
0.4429565
0.4219359
0.4231934
0.4248594
0.4264241
0.4292366
0.4336256
0.4431009
0.4219681
0.4232278
0.4248997
0.4264696
0.4292891
0.4336958
0.4432721
0.4220001
0.4232615
0.4249394
0.4265141
0.4293417
0.4337664
0.4434951
0.422031
0.4232951
0.4249788
0.4265574
0.4293942
0.4338375
0.4438052
0.9950862
1
1
1
1
1
1
1
1
1
1
1
1
1
1
1
1
1
0.9894591
1
1
1
1
1
1
1
1
1
1
1
1
1
1
1
1
1
0.9881569
1
1
1
1
1
1
1
1
1
1
1
1
1
1
1
1
1
0.9873347
1
1
1
1
1
1
1
1
1
1
1
1
1
1
1
1
1
0.9862634
1
1
1
1
1
1
1
1
1
1
1
1
1
1
1
1
1
0.9849662
1
1
1
1
1
1
1
1
1
1
1
1
1
1
1
1
1
0.9834877
1
1
1
1
1
1
1
1
1
1
1
1
1
1
1
1
1
0.9819236
1
1
1
1
1
1
1
1
1
1
1
1
1
1
1
1
1
0.9808391
1
1
1
1
1
1
1
1
1
1
1
1
1
1
1
1
1
0.979765
0.9999999
1
1
1
1
1
1
1
1
1
1
1
1
1
1
1
1
0.9785523
0.9999999
1
1
1
1
1
1
1
1
1
1
1
1
1
1
1
1
0.9774641
0.9999999
1
1
1
1
1
1
1
1
1
1
1
1
1
1
1
1
0.976332
0.9999999
1
1
1
1
1
1
1
1
1
1
1
1
1
1
1
1
0.9750189
0.9999999
1
1
1
1
1
1
1
1
1
1
1
1
1
1
1
1
0.9696017
0.9999999
1
1
1
1
1
1
1
1
1
1
1
1
1
1
1
1
0.9681256
1
1
1
1
1
1
1
1
1
1
1
1
1
1
1
1
1
0.9660702
0.9999997
1
1
1
1
1
1
1
1
1
1
1
1
1
1
1
1
0.9638135
0.9999997
1
1
1
1
1
1
1
1
1
1
1
1
1
1
1
1
0.961391
0.9999996
1
1
1
1
1
1
1
1
1
1
1
1
1
1
1
1
0.9589722
0.9999994
1
1
1
1
1
1
1
1
1
1
1
1
1
1
1
1
0.9565603
0.9999993
1
1
1
1
1
1
1
1
1
1
1
1
1
1
1
1
0.9540629
0.9999991
1
1
1
1
1
1
1
1
1
1
1
1
1
1
1
1
0.9514185
0.9999989
1
1
1
1
1
1
1
1
1
1
1
1
1
1
1
1
0.9486319
0.9999987
1
1
1
1
1
1
1
1
1
1
1
1
1
1
1
1
0.9456341
0.9999984
1
1
1
1
1
1
1
1
1
1
1
1
1
1
1
1
0.9425232
0.999998
1
1
1
1
1
1
1
1
1
1
1
1
1
1
1
1
0.9391881
0.9999975
1
1
1
1
1
1
1
1
1
1
1
1
1
1
1
1
0.9356336
0.9999969
1
1
1
1
1
1
1
1
1
1
1
1
1
1
1
1
0.9319093
0.9999963
1
1
1
1
1
1
1
1
1
1
1
1
1
1
1
1
0.9278815
0.9999954
1
1
1
1
1
1
1
1
1
1
1
1
1
1
1
1
0.9236174
0.9999944
1
1
1
1
1
1
1
1
1
1
1
1
1
1
1
1
0.9191364
0.9999933
1
1
1
1
1
1
1
1
1
1
1
1
1
1
1
1
0.9142384
0.9999922
1
1
1
1
1
1
1
1
1
1
1
1
1
1
1
1
0.9086566
0.9999913
1
1
1
1
1
1
1
1
1
1
1
1
1
1
1
1
0.8926405
0.9999833
1
1
1
1
1
1
1
1
1
1
1
1
1
1
1
1
0.8825318
0.9999762
1
1
1
1
1
1
1
1
1
1
1
1
1
1
1
1
0.8652167
0.9999702
1
1
1
1
1
1
1
1
1
1
1
1
1
1
1
1
0.7664513
0.9999264
1
1
1
1
1
1
1
1
1
1
1
1
1
1
1
1
0.634451
0.9998886
1
1
1
1
1
1
1
1
1
1
1
1
1
1
1
1
0.5390979
0.9996075
0.9999999
1
1
1
1
1
1
1
1
1
1
1
1
1
1
1
0.4803274
0.9984749
0.9999998
1
1
1
1
1
1
1
1
1
1
1
1
1
1
1
0.4701716
0.9989929
0.9999999
1
1
1
1
1
1
1
1
1
1
1
1
1
1
1
0.4641578
0.9990859
1
1
1
1
1
1
1
1
1
1
1
1
1
1
1
1
0.4602336
0.9984809
1
1
1
1
1
1
1
1
1
1
1
1
1
1
1
1
0.4561463
0.9986405
1
1
1
1
1
1
1
1
1
1
1
1
1
1
1
1
0.4532869
0.998902
1
1
1
1
1
1
1
1
1
1
1
1
1
1
1
1
0.4470777
0.997068
0.9999996
1
1
1
1
1
1
1
1
1
1
1
1
1
1
1
0.4418833
0.9668835
0.9999707
1
1
1
1
1
1
1
1
1
1
1
1
1
1
1
0.439136
0.9175216
0.9998469
0.9999993
1
1
1
1
1
1
1
1
1
1
1
1
1
1
0.4362179
0.8110333
0.9991736
0.9999936
1
1
1
1
1
1
1
1
1
1
0.4352782
0.4854668
1
1
1
1
1
1
1
1
0.4365734
1
1
1
1
1
1
1
1
1
1
1
1
1
1
1
1
1
1
1
1
1
1
1
1
1
1
1
1
1
1
1
1
1
1
1
1
1
1
1
1
1
1
1
1
1
1
1
1
1
0.4327585
1
1
1
1
1
1
0.4346705
0.4761769
1
1
1
1
1
1
1
0.4360511
0.730671
0.9988547
1
1
1
1
1
1
1
1
1
0.4404293
0.8895572
0.9996618
0.9999971
1
1
1
1
1
1
1
1
1
1
1
1
1
1
0.4447101
0.9603597
0.9999484
0.9999998
1
1
1
1
1
1
1
1
1
1
1
1
1
1
0.4464034
0.9863218
0.9999951
1
1
1
1
1
1
1
1
1
1
1
1
1
1
1
0.4506003
0.997837
0.9999998
1
1
1
1
1
1
1
1
1
1
1
1
1
1
1
0.4569946
0.9988457
1
1
1
1
1
1
1
1
1
1
1
1
1
1
1
1
0.4578663
0.99882
0.9999999
1
1
1
1
1
1
1
1
1
1
1
1
1
1
1
0.4608357
0.9981396
0.9999997
1
1
1
1
1
1
1
1
1
1
1
1
1
1
1
0.468301
0.9978934
0.9999996
1
1
1
1
1
1
1
1
1
1
1
1
1
1
1
0.4753388
0.9973032
0.9999981
1
1
1
1
1
1
1
1
1
1
1
1
1
1
1
0.4967563
0.9981799
0.9999994
1
1
1
1
1
1
1
1
1
1
1
1
1
1
1
0.5747573
0.9998006
1
1
1
1
1
1
1
1
1
1
1
1
1
1
1
1
0.6311746
0.999857
1
1
1
1
1
1
1
1
1
1
1
1
1
1
1
1
0.841009
0.9999659
1
1
1
1
1
1
1
1
1
1
1
1
1
1
1
1
0.8637607
0.9999672
1
1
1
1
1
1
1
1
1
1
1
1
1
1
1
1
0.8834529
0.9999801
1
1
1
1
1
1
1
1
1
1
1
1
1
1
1
1
0.8987787
0.99999
1
1
1
1
1
1
1
1
1
1
1
1
1
1
1
1
0.9122577
0.9999927
1
1
1
1
1
1
1
1
1
1
1
1
1
1
1
1
0.9170989
0.9999924
1
1
1
1
1
1
1
1
1
1
1
1
1
1
1
1
0.9216039
0.9999934
1
1
1
1
1
1
1
1
1
1
1
1
1
1
1
1
0.9259203
0.9999945
1
1
1
1
1
1
1
1
1
1
1
1
1
1
1
1
0.9300204
0.9999955
1
1
1
1
1
1
1
1
1
1
1
1
1
1
1
1
0.9338511
0.9999963
1
1
1
1
1
1
1
1
1
1
1
1
1
1
1
1
0.9374532
0.9999969
1
1
1
1
1
1
1
1
1
1
1
1
1
1
1
1
0.9408858
0.9999975
1
1
1
1
1
1
1
1
1
1
1
1
1
1
1
1
0.944189
0.999998
1
1
1
1
1
1
1
1
1
1
1
1
1
1
1
1
0.9471018
0.9999983
1
1
1
1
1
1
1
1
1
1
1
1
1
1
1
1
0.9501013
0.9999986
1
1
1
1
1
1
1
1
1
1
1
1
1
1
1
1
0.9527862
0.9999989
1
1
1
1
1
1
1
1
1
1
1
1
1
1
1
1
0.9553547
0.9999991
1
1
1
1
1
1
1
1
1
1
1
1
1
1
1
1
0.9577431
0.9999992
1
1
1
1
1
1
1
1
1
1
1
1
1
1
1
1
0.9601288
0.9999993
1
1
1
1
1
1
1
1
1
1
1
1
1
1
1
1
0.9626373
0.9999995
1
1
1
1
1
1
1
1
1
1
1
1
1
1
1
1
0.9649926
0.9999996
1
1
1
1
1
1
1
1
1
1
1
1
1
1
1
1
0.9672218
0.9999997
1
1
1
1
1
1
1
1
1
1
1
1
1
1
1
1
0.9686584
0.9999998
1
1
1
1
1
1
1
1
1
1
1
1
1
1
1
1
0.973293
0.9999997
1
1
1
1
1
1
1
1
1
1
1
1
1
1
1
1
0.9759561
0.9999998
1
1
1
1
1
1
1
1
1
1
1
1
1
1
1
1
0.9771166
0.9999999
1
1
1
1
1
1
1
1
1
1
1
1
1
1
1
1
0.9782525
0.9999999
1
1
1
1
1
1
1
1
1
1
1
1
1
1
1
1
0.9793587
0.9999999
1
1
1
1
1
1
1
1
1
1
1
1
1
1
1
1
0.9805282
0.9999999
1
1
1
1
1
1
1
1
1
1
1
1
1
1
1
1
0.9816732
0.9999999
1
1
1
1
1
1
1
1
1
1
1
1
1
1
1
1
0.9826305
0.9999999
1
1
1
1
1
1
1
1
1
1
1
1
1
1
1
1
0.9838691
0.9999999
1
1
1
1
1
1
1
1
1
1
1
1
1
1
1
1
0.9851924
0.9999999
1
1
1
1
1
1
1
1
1
1
1
1
1
1
1
1
0.9864291
0.9999999
1
1
1
1
1
1
1
1
1
1
1
1
1
1
1
1
0.9874772
0.9999999
1
1
1
1
1
1
1
1
1
1
1
1
1
1
1
1
0.9883413
0.9999999
1
1
1
1
1
1
1
1
1
1
1
1
1
1
1
1
0.9921011
0.9999998
1
1
1
1
1
1
1
1
1
1
1
1
1
1
1
1
1
1
1
1
1
1
1
1
1
1
1
1
1
1
1
1
1
1
1
1
1
1
1
1
1
1
1
1
1
1
1
1
1
1
1
1
1
1
1
1
1
1
1
1
1
1
1
1
1
1
1
1
1
1
1
1
1
1
1
1
1
1
1
1
1
1
1
1
1
1
1
1
1
1
1
1
1
1
1
1
1
1
1
1
1
1
1
1
1
1
1
1
1
1
1
1
1
1
1
1
1
1
1
1
1
1
1
1
1
1
1
1
1
1
1
1
1
1
1
1
1
1
1
1
1
1
1
1
1
1
1
1
1
1
1
1
1
1
1
1
1
1
1
1
1
1
1
1
1
1
1
1
1
1
1
1
1
1
1
1
1
1
1
1
1
1
1
1
1
1
1
1
1
1
1
1
1
1
1
1
1
1
1
1
1
1
1
1
1
1
1
1
1
1
1
1
1
1
1
1
1
1
1
1
1
1
1
1
1
1
1
1
1
1
1
1
1
1
1
1
1
1
1
1
1
1
1
1
1
1
1
1
1
1
1
1
1
1
1
1
1
1
1
1
1
1
1
1
1
1
1
1
1
1
1
1
1
1
1
1
1
1
1
1
1
1
1
1
1
1
1
1
1
1
1
1
1
1
1
1
1
1
1
1
1
1
1
1
1
1
1
1
1
1
1
1
1
1
1
1
1
1
1
1
1
1
1
1
1
1
1
1
1
1
1
1
1
1
1
1
1
1
1
1
1
1
1
1
1
1
1
1
1
1
1
1
1
1
1
1
1
1
1
1
1
1
1
1
1
1
1
1
1
1
1
1
1
1
1
1
1
1
1
1
1
1
1
1
1
1
1
1
1
1
1
1
1
1
1
1
1
1
1
1
1
1
1
1
1
1
1
1
1
1
1
1
1
1
1
1
1
1
1
1
1
1
1
1
1
1
1
1
1
1
1
1
1
1
1
1
1
1
1
1
1
1
1
1
1
1
1
1
1
1
1
1
1
1
1
1
1
1
1
1
1
1
1
1
1
1
1
1
1
1
1
1
1
1
1
1
1
1
1
1
1
1
1
1
1
1
1
1
1
1
1
1
1
1
1
1
1
1
1
1
1
1
1
1
1
1
1
1
1
1
1
1
1
1
1
1
1
1
1
1
1
1
1
1
1
1
1
1
1
1
1
1
1
1
1
1
1
1
1
1
1
1
1
1
1
1
1
1
1
1
1
1
1
1
1
1
1
1
1
1
1
1
1
1
1
1
1
1
1
1
1
1
1
1
1
1
1
1
1
1
1
1
1
1
1
1
1
1
1
1
1
1
1
1
1
1
1
1
1
1
1
1
1
1
1
1
1
1
1
1
1
1
1
1
1
1
1
1
1
1
1
1
1
1
1
1
1
1
1
1
1
1
1
1
1
1
1
1
1
1
1
1
1
1
1
1
1
1
1
1
1
1
1
1
1
1
1
1
1
1
1
1
1
1
1
1
1
1
1
1
1
1
1
1
1
1
1
1
1
1
1
1
1
1
1
1
1
1
1
1
1
1
1
1
1
1
1
1
1
1
1
1
1
1
1
1
1
1
1
1
1
1
1
1
1
1
1
1
1
1
1
1
1
1
1
1
1
1
1
1
1
1
1
1
1
1
1
1
1
1
1
1
1
1
1
1
1
1
1
1
1
1
1
1
1
1
1
1
1
1
1
1
1
1
1
1
1
1
1
1
1
1
1
1
1
1
1
1
1
1
1
1
1
1
1
1
1
1
1
1
1
1
1
1
1
1
1
1
1
1
1
1
1
1
1
1
1
1
1
1
1
1
1
1
1
1
1
1
1
1
1
1
1
1
1
1
1
1
1
1
1
1
1
1
1
1
1
1
1
1
1
1
1
1
1
1
1
1
1
1
1
1
1
1
1
1
1
1
1
1
1
1
1
1
1
1
1
1
1
1
1
1
1
1
1
1
1
1
1
1
1
1
1
1
1
1
1
1
1
1
1
1
1
1
1
1
1
1
1
1
1
1
1
1
1
1
1
1
1
1
1
1
1
1
1
1
1
1
1
1
1
1
1
1
1
1
1
1
1
1
1
1
1
1
1
1
1
1
1
1
1
1
1
1
1
1
1
1
1
1
1
1
1
1
1
1
1
1
1
1
1
1
1
1
1
1
1
1
1
1
1
1
1
1
1
1
1
1
1
1
1
1
1
1
1
1
1
1
1
1
1
1
1
1
1
1
1
1
1
1
1
1
1
1
1
1
1
1
1
1
1
1
1
1
1
1
1
1
1
1
1
1
1
1
1
1
1
1
1
1
1
1
1
1
1
1
1
1
1
1
1
1
1
1
1
1
1
1
1
1
1
1
1
1
1
1
1
1
1
1
1
1
1
1
1
1
1
1
1
1
1
1
1
1
1
1
1
1
1
1
1
1
1
1
1
1
1
1
1
1
1
1
1
1
1
1
1
1
1
1
1
1
1
1
1
1
1
1
1
1
1
1
1
1
1
1
1
1
1
1
1
1
1
1
1
1
1
1
1
1
1
1
1
1
1
1
1
1
1
1
1
1
1
1
1
1
1
1
1
1
1
1
1
1
1
1
1
1
1
1
1
1
1
1
1
1
1
1
1
1
1
1
1
1
1
1
1
1
1
1
1
1
1
1
1
1
1
1
1
1
1
1
1
1
1
1
1
1
1
1
1
1
1
1
1
1
1
1
1
1
1
1
1
1
1
1
1
1
1
1
1
1
1
1
1
1
1
1
1
1
1
1
1
1
1
1
1
1
1
1
1
1
1
1
1
1
1
1
0.4342999
0.4346794
0.4352652
0.4320569
0.4356102
0.4294988
0.4318014
0.4290044
0.4283161
0.4316962
0.4280175
0.4284393
0.4312247
0.4277604
0.4304699
0.4297558
0.42752
0.4293904
0.4307085
0.430782
0.4305718
0.9999999
0.9999997
0.9999975
1
1
1
1
1
1
1
1
1
1
1
1
1
1
1
0.9999318
0.99976
0.9987748
0.9999995
1
1
1
1
0.9565166
0.4879522
1
1
0.4383059
0.4348668
1
1
1
1
1
1
1
1
1
1
1
1
1
1
1
1
1
1
1
1
1
1
1
1
1
1
1
1
1
1
1
1
0.4424896
0.4362529
1
1
1
0.9741645
0.506429
1
1
1
0.9997935
0.9999157
0.9991102
0.9999995
0.9999941
1
1
1
1
1
0.9999996
0.9999999
0.9999987
1
1
1
1
1
1
1
1
1
1
1
1
1
1
1
0.4278667
0.4278416
0.4265579
0.4313523
0.4313251
0.4293941
0.4374581
0.4374034
0.4338366
0.4991684
0.491124
0.4437783
0.4278144
0.4277912
0.4265164
0.4312985
0.4312727
0.4293436
0.437348
0.4372942
0.4337657
0.485638
0.4851514
0.4434741
0.4312473
0.4312212
0.4292982
0.4372395
0.4371859
0.4336964
0.4846393
0.4841803
0.4432504
0.4277106
0.4276842
0.4264309
0.4311938
0.4311669
0.4292377
0.4371318
0.4370775
0.4336255
0.4837844
0.4834549
0.443077
0.4276593
0.4276343
0.4263832
0.4311398
0.4311141
0.4291859
0.4370235
0.4369695
0.4335555
0.4831914
0.4829912
0.4429301
0.4310874
0.4310615
0.429136
0.4369176
0.4368723
0.4334861
0.4828494
0.482762
0.4427907
0.4275802
0.4275843
0.4262933
0.4310382
0.4310143
0.4291481
0.4368271
0.4367816
0.4334165
0.4827135
0.4826593
0.4426567
0.4309882
0.4309628
0.429108
0.4367362
0.4366909
0.4333509
0.482647
0.4824881
0.4425287
0.4275206
0.4274995
0.4262037
0.4309364
0.4309114
0.4290665
0.4366451
0.4366002
0.4332888
0.4820894
0.4818543
0.4424037
0.427478
0.4274571
0.4261596
0.4308854
0.4308623
0.4290258
0.4365548
0.4365096
0.4332271
0.4816249
0.4814498
0.4422801
0.4274358
0.4274158
0.4261333
0.4308386
0.4308155
0.4289847
0.436464
0.4364188
0.4331653
0.4812621
0.4810416
0.4421629
0.4274124
0.427408
0.4261235
0.4307917
0.4307677
0.4289602
0.4363732
0.4363281
0.4331036
0.4808166
0.4805974
0.442047
0.4274033
0.4273991
0.4261139
0.4307633
0.4307585
0.4289519
0.4362825
0.4362348
0.4330663
0.4803849
0.4801776
0.441938
0.4273943
0.4273898
0.4261042
0.430753
0.4307477
0.4289434
0.4362269
0.4362156
0.4330515
0.4800204
0.4790564
0.4419065
0.427385
0.42738
0.4260947
0.4307418
0.430736
0.4289343
0.4362034
0.4361919
0.4330358
0.4775666
0.4772692
0.4419185
0.4273754
0.4273698
0.4260845
0.43073
0.4307236
0.4289246
0.4361786
0.4361668
0.4330195
0.4771343
0.4768607
0.4419483
0.4273615
0.4273143
0.4260712
0.4307175
0.4307055
0.4288469
0.4361537
0.4361406
0.4330022
0.4764934
0.4761766
0.441978
0.4272604
0.4272482
0.4260572
0.4306945
0.4306875
0.4287819
0.4361271
0.4361128
0.4329835
0.4758292
0.4754992
0.4420069
0.4272407
0.4272339
0.4260457
0.4306803
0.4306727
0.4287679
0.4360987
0.4360837
0.432964
0.4751546
0.4748218
0.4420388
0.4272265
0.4272188
0.4260338
0.4306652
0.4306572
0.4287527
0.4360683
0.4360528
0.4329435
0.4745327
0.4742385
0.4420811
0.4272116
0.4272031
0.4260211
0.4306494
0.4306408
0.4287369
0.4360365
0.4360206
0.4329215
0.4739578
0.4736812
0.4421229
0.4271952
0.4271857
0.4260082
0.4306323
0.4306234
0.4287195
0.4360032
0.4359868
0.4328994
0.4733971
0.4731271
0.4421693
0.4271758
0.4271706
0.4259922
0.4306127
0.4305528
0.4286677
0.4359694
0.4359518
0.4328724
0.4728345
0.4725619
0.4422143
0.4304581
0.4304084
0.4285494
0.4359346
0.4359164
0.4328377
0.4722738
0.4719846
0.4422612
0.4271324
0.4271247
0.4259662
0.4303945
0.4303817
0.4285149
0.4358985
0.4358798
0.4328108
0.4716993
0.4714219
0.4423112
0.4271166
0.4271068
0.4259463
0.4303689
0.4303558
0.4284914
0.4358606
0.4358411
0.4327822
0.4711391
0.4708526
0.4423638
0.4270962
0.4270856
0.4259292
0.4303361
0.4302783
0.428463
0.4358213
0.435794
0.4326719
0.4705686
0.4702787
0.442423
0.4270748
0.4270628
0.4259126
0.4301686
0.4301039
0.4284306
0.4357628
0.4357371
0.4324504
0.4699919
0.4697034
0.4424771
0.4232344
0.4232295
0.4225696
0.4248886
0.4248799
0.4240078
0.427051
0.4270378
0.4258817
0.430081
0.4300624
0.4283998
0.4357161
0.4356949
0.4324095
0.4694211
0.4691259
0.4425251
0.4232239
0.423217
0.4225518
0.4248725
0.4248633
0.4239903
0.4270248
0.4270117
0.4258591
0.4300434
0.4300239
0.4283692
0.4356735
0.4356387
0.4323507
0.4688339
0.4685391
0.442576
0.4232063
0.4231965
0.422502
0.4248532
0.4248432
0.4239722
0.4269969
0.4269827
0.4258356
0.4299986
0.4299722
0.4283352
0.4354086
0.4352312
0.4320648
0.4682468
0.4679499
0.442621
0.4231817
0.4231498
0.4224616
0.4248324
0.4248218
0.4239505
0.4269667
0.4269507
0.4258103
0.4299493
0.4299263
0.4282979
0.4351839
0.4351554
0.4319821
0.467668
0.4673804
0.4426398
0.4231236
0.4231035
0.422415
0.4248113
0.4248009
0.4239213
0.4269347
0.4269184
0.4257844
0.4299018
0.4298746
0.4282584
0.4350914
0.4348125
0.431904
0.4670959
0.4667679
0.4418082
0.4230695
0.4230262
0.4223969
0.4247871
0.4247737
0.4238514
0.4269034
0.4268888
0.4257614
0.4298456
0.4298098
0.4282169
0.4345157
0.4342857
0.4317643
0.4664389
0.465708
0.4405292
0.4230054
0.422995
0.4223853
0.4247496
0.4247282
0.4237742
0.4268842
0.4269015
0.4257606
0.4297676
0.4297182
0.4282089
0.4340098
0.433754
0.4314938
0.4648627
0.4646997
0.4394168
0.423005
0.4230292
0.4224274
0.4247453
0.424757
0.4237993
0.4269539
0.4270197
0.425881
0.4296497
0.4295847
0.4282739
0.4334384
0.4326687
0.4309825
0.4626603
0.460504
0.4366447
0.4231126
0.4232347
0.4226361
0.4247968
0.4249312
0.4240683
0.4271076
0.427269
0.4261588
0.4296316
0.4298707
0.4284945
0.43214
0.4322304
0.4310619
0.4599486
0.4594147
0.4356141
0.4234325
0.4236635
0.4230425
0.4251352
0.4254605
0.4245341
0.4275699
0.427992
0.4264241
0.4303062
0.4307928
0.4291578
0.4327897
0.4336215
0.4322327
0.4503461
0.4469796
0.4353047
0.4239663
0.424281
0.4235807
0.4258263
0.4263963
0.425246
0.428284
0.4288277
0.4277031