/*--------------------------------*- C++ -*----------------------------------*\
| =========                 |                                                 |
| \\      /  F ield         | OpenFOAM: The Open Source CFD Toolbox           |
|  \\    /   O peration     | Version:  2206                                  |
|   \\  /    A nd           | Website:  www.openfoam.com                      |
|    \\/     M anipulation  |                                                 |
\*---------------------------------------------------------------------------*/
FoamFile
{
    version     2.0;
    format      ascii;
    arch        "LSB;label=32;scalar=64";
    class       volScalarField;
    location    "1.8";
    object      ddt0(k.b);
}
// * * * * * * * * * * * * * * * * * * * * * * * * * * * * * * * * * * * * * //

dimensions      [0 2 -3 0 0 0 0];

internalField   nonuniform List<scalar> 
13078
(
-2.626539e-13
-1.563221e-10
-1.60287e-10
-1.610487e-10
-1.622166e-10
-1.635424e-10
-1.650799e-10
-1.823709e-13
-1.434103e-10
-1.599613e-10
-1.610067e-10
-1.621803e-10
-1.635125e-10
-1.650476e-10
-1.905092e-13
-1.427283e-10
-1.59901e-10
-1.609472e-10
-1.621367e-10
-1.634766e-10
-1.650121e-10
-2.291117e-13
-1.427782e-10
-1.598685e-10
-1.609027e-10
-1.62097e-10
-1.634406e-10
-1.649757e-10
-3.150133e-13
-1.427887e-10
-1.598518e-10
-1.608868e-10
-1.620646e-10
-1.634066e-10
-1.649401e-10
-4.212572e-13
-1.42791e-10
-1.598444e-10
-1.608782e-10
-1.620547e-10
-1.633769e-10
-1.649056e-10
-5.410118e-13
-1.42772e-10
-1.598381e-10
-1.608686e-10
-1.620481e-10
-1.63369e-10
-1.648744e-10
-6.757419e-13
-1.4274e-10
-1.598318e-10
-1.608623e-10
-1.620438e-10
-1.63364e-10
-1.648671e-10
-8.305147e-13
-1.427115e-10
-1.598296e-10
-1.608603e-10
-1.62041e-10
-1.633598e-10
-1.648618e-10
-1.009817e-12
-1.42675e-10
-1.598275e-10
-1.608588e-10
-1.620385e-10
-1.633562e-10
-1.648572e-10
-1.221216e-12
-1.42633e-10
-1.598249e-10
-1.608574e-10
-1.620361e-10
-1.633527e-10
-1.648525e-10
-1.473412e-12
-1.425862e-10
-1.598217e-10
-1.608558e-10
-1.620338e-10
-1.633493e-10
-1.648479e-10
-1.777323e-12
-1.425354e-10
-1.59818e-10
-1.608539e-10
-1.620314e-10
-1.633458e-10
-1.648433e-10
-2.147239e-12
-1.424805e-10
-1.598137e-10
-1.608515e-10
-1.620282e-10
-1.633421e-10
-1.648383e-10
-2.601323e-12
-1.424217e-10
-1.598085e-10
-1.608431e-10
-1.62016e-10
-1.633372e-10
-1.648331e-10
-3.162591e-12
-1.42359e-10
-1.598025e-10
-1.608326e-10
-1.620058e-10
-1.633325e-10
-1.648276e-10
-3.860486e-12
-1.422928e-10
-1.597962e-10
-1.608289e-10
-1.620016e-10
-1.633279e-10
-1.648218e-10
-4.732563e-12
-1.422227e-10
-1.597892e-10
-1.608254e-10
-1.619974e-10
-1.63323e-10
-1.648157e-10
-5.826722e-12
-1.42148e-10
-1.597812e-10
-1.608217e-10
-1.619926e-10
-1.633169e-10
-1.64809e-10
-7.203664e-12
-1.42069e-10
-1.597722e-10
-1.60817e-10
-1.619784e-10
-1.632967e-10
-1.648007e-10
-8.940592e-12
-1.419852e-10
-1.597621e-10
-1.608118e-10
-1.619609e-10
-1.632796e-10
-1.64792e-10
-1.113521e-11
-1.418963e-10
-1.597509e-10
-1.608071e-10
-1.619539e-10
-1.632719e-10
-1.647837e-10
-1.391147e-11
-1.418017e-10
-1.597381e-10
-1.608017e-10
-1.619474e-10
-1.632631e-10
-1.647734e-10
-1.742509e-11
-1.417012e-10
-1.597238e-10
-1.60796e-10
-1.619393e-10
-1.63241e-10
-1.64742e-10
-2.187133e-11
-1.415944e-10
-1.597077e-10
-1.607898e-10
-1.619304e-10
-1.632139e-10
-1.647151e-10
-2.74935e-11
-1.414808e-10
-1.596894e-10
-1.607829e-10
-1.619219e-10
-1.632016e-10
-1.647012e-10
-3.459365e-11
-1.413618e-10
-1.596688e-10
-1.607755e-10
-1.619127e-10
-1.631897e-10
-1.64686e-10
-4.356764e-11
-1.41226e-10
-1.596454e-10
-1.607676e-10
-1.619026e-10
-1.631757e-10
-1.646507e-10
-5.490198e-11
-1.410991e-10
-1.596193e-10
-1.60759e-10
-1.618915e-10
-1.6316e-10
-1.646074e-10
-6.9646e-11
-1.407918e-10
-1.595871e-10
-1.607495e-10
-1.618797e-10
-1.631446e-10
-1.645857e-10
-8.88735e-11
-1.40456e-10
-1.595551e-10
-1.607392e-10
-1.618667e-10
-1.631275e-10
-1.645618e-10
-1.115795e-10
-1.399353e-10
-1.595309e-10
-1.607265e-10
-1.618525e-10
-1.631086e-10
-1.645353e-10
-1.395375e-10
-1.392664e-10
-1.594549e-10
-1.607043e-10
-1.618361e-10
-1.630886e-10
-1.645094e-10
-1.734962e-10
-1.390453e-10
-1.593933e-10
-1.60685e-10
-1.618212e-10
-1.630714e-10
-1.64486e-10
-2.143662e-10
-1.38804e-10
-1.5935e-10
-1.606751e-10
-1.618071e-10
-1.630648e-10
-1.644737e-10
-2.627533e-10
-1.385419e-10
-1.593239e-10
-1.606855e-10
-1.618105e-10
-1.630613e-10
-1.644786e-10
-3.188614e-10
-1.3828e-10
-1.593343e-10
-1.607467e-10
-1.618458e-10
-1.630667e-10
-1.644713e-10
-3.822941e-10
-1.3806e-10
-1.59376e-10
-1.60827e-10
-1.618948e-10
-1.630435e-10
-1.643496e-10
-4.524633e-10
-1.379072e-10
-1.594242e-10
-1.608909e-10
-1.618951e-10
-1.629707e-10
-1.641563e-10
-5.320618e-10
-1.375249e-10
-1.59452e-10
-1.608974e-10
-1.61828e-10
-1.62811e-10
-1.638753e-10
-6.209951e-10
-1.368317e-10
-1.594592e-10
-1.608078e-10
-1.616341e-10
-1.625262e-10
-1.635204e-10
-7.003999e-10
-1.360725e-10
-1.592136e-10
-1.605112e-10
-1.612935e-10
-1.621253e-10
-1.628327e-10
-7.778091e-10
-1.357716e-10
-1.588476e-10
-1.601098e-10
-1.608722e-10
-1.614554e-10
-1.619245e-10
-8.4735e-10
-1.350024e-10
-1.584369e-10
-1.59764e-10
-1.602985e-10
-1.605254e-10
-1.609857e-10
-9.016998e-10
-1.334085e-10
-1.581233e-10
-1.591989e-10
-1.594647e-10
-1.596896e-10
-1.599322e-10
-9.37996e-10
-1.311457e-10
-1.577536e-10
-1.582208e-10
-1.583911e-10
-1.585395e-10
-1.587639e-10
-9.294774e-10
-1.287241e-10
-1.568901e-10
-1.572047e-10
-1.569689e-10
-1.570484e-10
-1.573164e-10
-8.715452e-10
-1.271345e-10
-1.559056e-10
-1.560545e-10
-1.556284e-10
-1.556287e-10
-1.555684e-10
-7.728187e-10
-1.256293e-10
-1.549796e-10
-1.547988e-10
-1.543937e-10
-1.542903e-10
-1.542055e-10
-6.465196e-10
-1.243272e-10
-1.541024e-10
-1.537243e-10
-1.531376e-10
-1.527845e-10
-1.529146e-10
-5.06147e-10
-1.22352e-10
-1.534189e-10
-1.528073e-10
-1.520737e-10
-1.515512e-10
-1.513958e-10
-3.646126e-10
-1.195063e-10
-1.524532e-10
-1.519099e-10
-1.511611e-10
-1.506983e-10
-1.503033e-10
-2.227325e-10
-1.179296e-10
-1.515099e-10
-1.512589e-10
-1.505821e-10
-1.502724e-10
-1.49662e-10
-1.050821e-10
-1.168824e-10
-1.508295e-10
-1.506563e-10
-1.500816e-10
-1.497722e-10
-1.494537e-10
-2.574678e-11
-1.161298e-10
-1.504083e-10
-1.502753e-10
-1.497909e-10
-1.495204e-10
-1.493617e-10
7.480551e-12
-1.156468e-10
-1.502604e-10
-1.500736e-10
-1.496426e-10
-1.494292e-10
-1.493792e-10
-9.716425e-12
-1.156611e-10
-1.503196e-10
-1.500418e-10
-1.496112e-10
-1.493941e-10
-1.493431e-10
-8.60801e-11
-1.161407e-10
-1.506194e-10
-1.502389e-10
-1.497423e-10
-1.494603e-10
-1.493294e-10
-1.883494e-10
-1.167454e-10
-1.511102e-10
-1.50608e-10
-1.500223e-10
-1.496997e-10
-1.494174e-10
-3.083675e-10
-1.175077e-10
-1.517365e-10
-1.511519e-10
-1.504831e-10
-1.501586e-10
-1.496094e-10
-4.336526e-10
-1.187247e-10
-1.525157e-10
-1.517046e-10
-1.510162e-10
-1.505753e-10
-1.502054e-10
-5.461845e-10
-1.211886e-10
-1.533512e-10
-1.525798e-10
-1.518716e-10
-1.513415e-10
-1.511571e-10
-6.597158e-10
-1.229145e-10
-1.538942e-10
-1.534318e-10
-1.528324e-10
-1.524321e-10
-1.524761e-10
-7.615387e-10
-1.240963e-10
-1.547071e-10
-1.544872e-10
-1.540085e-10
-1.53793e-10
-1.536383e-10
-8.384554e-10
-1.256478e-10
-1.55621e-10
-1.557379e-10
-1.552068e-10
-1.550543e-10
-1.548768e-10
-8.784652e-10
-1.274908e-10
-1.565821e-10
-1.568705e-10
-1.564777e-10
-1.56356e-10
-1.565045e-10
-8.799978e-10
-1.301608e-10
-1.574064e-10
-1.578232e-10
-1.578094e-10
-1.577962e-10
-1.578836e-10
-8.406506e-10
-1.324474e-10
-1.577266e-10
-1.587727e-10
-1.588799e-10
-1.58971e-10
-1.591593e-10
-7.87939e-10
-1.340028e-10
-1.580334e-10
-1.59362e-10
-1.597942e-10
-1.59912e-10
-1.604549e-10
-7.238071e-10
-1.347756e-10
-1.584682e-10
-1.597497e-10
-1.604673e-10
-1.60996e-10
-1.614261e-10
-6.510859e-10
-1.351331e-10
-1.588855e-10
-1.601998e-10
-1.609854e-10
-1.61812e-10
-1.624636e-10
-5.734704e-10
-1.35796e-10
-1.591786e-10
-1.605588e-10
-1.614013e-10
-1.623266e-10
-1.633611e-10
-4.899667e-10
-1.364367e-10
-1.592333e-10
-1.60712e-10
-1.616678e-10
-1.626984e-10
-1.638178e-10
-4.149277e-10
-1.368774e-10
-1.592351e-10
-1.607265e-10
-1.617747e-10
-1.628912e-10
-1.641341e-10
-3.486936e-10
-1.37187e-10
-1.592259e-10
-1.606865e-10
-1.617767e-10
-1.629609e-10
-1.643125e-10
-2.8932e-10
-1.376709e-10
-1.592429e-10
-1.606445e-10
-1.617529e-10
-1.629888e-10
-1.644077e-10
-2.373147e-10
-1.38107e-10
-1.5927e-10
-1.606268e-10
-1.617506e-10
-1.630078e-10
-1.644205e-10
-1.921139e-10
-1.384857e-10
-1.593209e-10
-1.606486e-10
-1.617749e-10
-1.630313e-10
-1.644404e-10
-1.547511e-10
-1.388217e-10
-1.593752e-10
-1.606726e-10
-1.618074e-10
-1.630554e-10
-1.644696e-10
-1.240736e-10
-1.39087e-10
-1.59441e-10
-1.606967e-10
-1.618281e-10
-1.6308e-10
-1.645007e-10
-9.887189e-11
-1.397976e-10
-1.595208e-10
-1.607215e-10
-1.618469e-10
-1.631026e-10
-1.645294e-10
-7.847441e-11
-1.403485e-10
-1.595465e-10
-1.607353e-10
-1.618624e-10
-1.631229e-10
-1.645573e-10
-6.123354e-11
-1.407154e-10
-1.595798e-10
-1.607466e-10
-1.618764e-10
-1.631412e-10
-1.64582e-10
-4.80741e-11
-1.410352e-10
-1.59613e-10
-1.607568e-10
-1.618892e-10
-1.631574e-10
-1.646046e-10
-3.80053e-11
-1.411758e-10
-1.596399e-10
-1.607659e-10
-1.619008e-10
-1.631737e-10
-1.646483e-10
-3.006123e-11
-1.413213e-10
-1.596639e-10
-1.607743e-10
-1.619113e-10
-1.63188e-10
-1.646842e-10
-2.379756e-11
-1.41448e-10
-1.59685e-10
-1.60782e-10
-1.619208e-10
-1.632003e-10
-1.646997e-10
-1.885413e-11
-1.415676e-10
-1.597038e-10
-1.60789e-10
-1.619296e-10
-1.632129e-10
-1.64714e-10
-1.495744e-11
-1.416792e-10
-1.597203e-10
-1.607953e-10
-1.619385e-10
-1.632402e-10
-1.647411e-10
-1.188897e-11
-1.417833e-10
-1.59735e-10
-1.608012e-10
-1.619467e-10
-1.632623e-10
-1.647725e-10
-9.473105e-12
-1.418809e-10
-1.597481e-10
-1.608066e-10
-1.619533e-10
-1.632712e-10
-1.647829e-10
-7.569031e-12
-1.419723e-10
-1.597596e-10
-1.608115e-10
-1.619605e-10
-1.632791e-10
-1.647913e-10
-6.066347e-12
-1.420583e-10
-1.597699e-10
-1.608168e-10
-1.619781e-10
-1.632964e-10
-1.648003e-10
-4.878374e-12
-1.421391e-10
-1.597792e-10
-1.608215e-10
-1.619923e-10
-1.633166e-10
-1.648087e-10
-3.936819e-12
-1.422154e-10
-1.597875e-10
-1.608252e-10
-1.619972e-10
-1.633228e-10
-1.648153e-10
-3.188208e-12
-1.422871e-10
-1.597947e-10
-1.608287e-10
-1.620014e-10
-1.633276e-10
-1.648215e-10
-2.590571e-12
-1.423547e-10
-1.598012e-10
-1.608325e-10
-1.620057e-10
-1.633322e-10
-1.648274e-10
-2.110919e-12
-1.424187e-10
-1.598075e-10
-1.608431e-10
-1.620159e-10
-1.633371e-10
-1.64833e-10
-1.723502e-12
-1.424789e-10
-1.598129e-10
-1.608516e-10
-1.620282e-10
-1.63342e-10
-1.648382e-10
-1.408511e-12
-1.425353e-10
-1.598174e-10
-1.608541e-10
-1.620315e-10
-1.633458e-10
-1.648431e-10
-1.150763e-12
-1.425876e-10
-1.598213e-10
-1.608561e-10
-1.620339e-10
-1.633492e-10
-1.648477e-10
-9.397008e-13
-1.426365e-10
-1.598247e-10
-1.608577e-10
-1.620362e-10
-1.633525e-10
-1.648521e-10
-7.647628e-13
-1.426812e-10
-1.598275e-10
-1.608593e-10
-1.620385e-10
-1.633558e-10
-1.648565e-10
-6.164577e-13
-1.427214e-10
-1.598299e-10
-1.608607e-10
-1.620406e-10
-1.63359e-10
-1.648609e-10
-4.902363e-13
-1.427549e-10
-1.598321e-10
-1.608622e-10
-1.620429e-10
-1.633625e-10
-1.648655e-10
-3.830821e-13
-1.42794e-10
-1.598379e-10
-1.608675e-10
-1.62046e-10
-1.633666e-10
-1.648721e-10
-2.931895e-13
-1.428224e-10
-1.598426e-10
-1.608751e-10
-1.620505e-10
-1.633729e-10
-1.649022e-10
-2.254053e-13
-1.428301e-10
-1.598456e-10
-1.608795e-10
-1.620572e-10
-1.634005e-10
-1.649355e-10
-1.838227e-13
-1.428288e-10
-1.598527e-10
-1.608881e-10
-1.620849e-10
-1.634319e-10
-1.649699e-10
-1.579862e-13
-1.42796e-10
-1.59868e-10
-1.609203e-10
-1.621188e-10
-1.634657e-10
-1.650056e-10
-1.511669e-13
-1.42896e-10
-1.599184e-10
-1.609658e-10
-1.621583e-10
-1.635016e-10
-1.650421e-10
-1.379261e-13
-1.444845e-10
-1.599731e-10
-1.61031e-10
-1.622058e-10
-1.635397e-10
-1.65079e-10
-1.669025e-10
-1.692146e-10
-1.723381e-10
-1.753621e-10
-1.808335e-10
-1.878119e-10
-7.78769e-10
-1.668643e-10
-1.691645e-10
-1.722711e-10
-1.752811e-10
-1.807327e-10
-1.891132e-10
-7.849084e-12
-1.668246e-10
-1.691146e-10
-1.722067e-10
-1.763338e-10
-1.806399e-10
-1.889695e-10
7.102506e-13
-1.667845e-10
-1.690644e-10
-1.721392e-10
-1.751199e-10
-1.805326e-10
-1.88826e-10
-6.493867e-13
-1.667454e-10
-1.690143e-10
-1.720743e-10
-1.750346e-10
-1.80432e-10
-1.886832e-10
-2.472148e-12
-1.667067e-10
-1.689643e-10
-1.720083e-10
-1.749531e-10
-1.803324e-10
-1.885412e-10
-4.762778e-12
-1.666688e-10
-1.689146e-10
-1.719426e-10
-1.748741e-10
-1.803042e-10
-1.883998e-10
-9.009495e-12
-1.666338e-10
-1.688651e-10
-1.718772e-10
-1.747965e-10
-1.802775e-10
-1.882557e-10
-8.201905e-12
-1.666254e-10
-1.688192e-10
-1.718149e-10
-1.74717e-10
-1.801975e-10
-1.881268e-10
-7.868191e-11
-1.666191e-10
-1.688077e-10
-1.717564e-10
-1.746378e-10
-1.80118e-10
-1.880029e-10
-1.474808e-10
-1.666131e-10
-1.68799e-10
-1.717408e-10
-1.745606e-10
-1.800386e-10
-1.878803e-10
-2.040023e-10
-1.666069e-10
-1.687899e-10
-1.717284e-10
-1.745429e-10
-1.799585e-10
-1.877656e-10
-2.578911e-10
-1.666005e-10
-1.687806e-10
-1.717155e-10
-1.745268e-10
-1.799427e-10
-1.876535e-10
-2.931852e-10
-1.665938e-10
-1.687709e-10
-1.71702e-10
-1.745099e-10
-1.79925e-10
-1.876178e-10
-3.407716e-10
-1.665868e-10
-1.687605e-10
-1.716877e-10
-1.74492e-10
-1.799061e-10
-1.876616e-10
-3.14092e-10
-1.665794e-10
-1.687496e-10
-1.716727e-10
-1.744731e-10
-1.798857e-10
-1.876764e-10
-3.169918e-10
-1.665716e-10
-1.687381e-10
-1.716569e-10
-1.744529e-10
-1.798579e-10
-1.876792e-10
-2.988505e-10
-1.665633e-10
-1.687262e-10
-1.716401e-10
-1.744236e-10
-1.796147e-10
-1.876778e-10
-2.877705e-10
-1.665546e-10
-1.687141e-10
-1.716225e-10
-1.744012e-10
-1.795788e-10
-1.876667e-10
-2.797908e-10
-1.665451e-10
-1.687012e-10
-1.716038e-10
-1.743774e-10
-1.795474e-10
-1.876546e-10
-2.716112e-10
-1.665351e-10
-1.686874e-10
-1.71584e-10
-1.743522e-10
-1.795141e-10
-1.8764e-10
-2.634316e-10
-1.665242e-10
-1.686725e-10
-1.71563e-10
-1.743253e-10
-1.794789e-10
-1.875949e-10
-1.648021e-10
-1.665126e-10
-1.686566e-10
-1.715396e-10
-1.742979e-10
-1.794369e-10
-1.873755e-10
1.324331e-09
-1.66498e-10
-1.686393e-10
-1.71516e-10
-1.753089e-10
-1.792132e-10
-1.872196e-10
9.954394e-10
-1.664826e-10
-1.686208e-10
-1.714885e-10
-1.742409e-10
-1.790821e-10
-1.870583e-10
9.015916e-10
-1.664676e-10
-1.686008e-10
-1.714615e-10
-1.741977e-10
-1.790288e-10
-1.868775e-10
1.14989e-09
-1.664488e-10
-1.685783e-10
-1.714306e-10
-1.741594e-10
-1.789724e-10
-1.867858e-10
1.060906e-09
-1.663984e-10
-1.685529e-10
-1.713981e-10
-1.741181e-10
-1.788992e-10
-1.863728e-10
9.762966e-10
-1.663578e-10
-1.679554e-10
-1.705892e-10
-1.740683e-10
-1.788292e-10
-1.862035e-10
9.147207e-10
-1.663332e-10
-1.679285e-10
-1.705533e-10
-1.740205e-10
-1.787618e-10
-1.862221e-10
6.538048e-10
-1.662603e-10
-1.678451e-10
-1.705145e-10
-1.739684e-10
-1.786895e-10
-1.849284e-10
-1.365502e-10
-1.662029e-10
-1.67767e-10
-1.704711e-10
-1.739111e-10
-1.786118e-10
-1.847354e-10
-7.905015e-11
-1.661647e-10
-1.676489e-10
-1.70415e-10
-1.738474e-10
-1.785281e-10
-1.847878e-10
-9.851916e-11
-1.661299e-10
-1.675984e-10
-1.702731e-10
-1.737756e-10
-1.784384e-10
-1.84894e-10
-5.898139e-11
-1.661005e-10
-1.675544e-10
-1.701028e-10
-1.736942e-10
-1.783548e-10
-1.854215e-10
3.077291e-10
-1.660752e-10
-1.67515e-10
-1.6993e-10
-1.735788e-10
-1.78284e-10
-1.853561e-10
4.954638e-10
-1.660077e-10
-1.674255e-10
-1.697606e-10
-1.731588e-10
-1.781362e-10
-1.85717e-10
3.230375e-10
-1.658415e-10
-1.67201e-10
-1.694511e-10
-1.727176e-10
-1.77808e-10
-1.852934e-10
5.958399e-10
-1.65574e-10
-1.668308e-10
-1.690293e-10
-1.72219e-10
-1.771284e-10
-1.852257e-10
-1.976831e-10
-1.651588e-10
-1.663571e-10
-1.684444e-10
-1.713352e-10
-1.764526e-10
-1.851309e-10
-2.302178e-10
-1.645888e-10
-1.655511e-10
-1.67531e-10
-1.707021e-10
-1.758752e-10
-1.833209e-10
-2.125879e-10
-1.637757e-10
-1.646309e-10
-1.66403e-10
-1.697702e-10
-1.747255e-10
-1.80788e-10
-2.586514e-10
-1.629124e-10
-1.637348e-10
-1.651733e-10
-1.684821e-10
-1.73129e-10
-1.795348e-10
-4.358343e-10
-1.620752e-10
-1.626374e-10
-1.642592e-10
-1.671721e-10
-1.717532e-10
-1.786727e-10
-4.970434e-10
-1.607334e-10
-1.615012e-10
-1.627508e-10
-1.662459e-10
-1.700962e-10
-1.774647e-10
-3.001403e-10
-1.592768e-10
-1.602546e-10
-1.617098e-10
-1.642875e-10
-1.694231e-10
-1.760005e-10
-8.010834e-10
-1.579512e-10
-1.592057e-10
-1.601161e-10
-1.63576e-10
-1.677249e-10
-1.754473e-10
-5.86073e-10
-1.567146e-10
-1.580764e-10
-1.594233e-10
-1.622258e-10
-1.674444e-10
-1.730346e-10
-3.410972e-10
-1.548908e-10
-1.571914e-10
-1.582376e-10
-1.608053e-10
-1.661055e-10
-1.757506e-10
-5.791895e-10
-1.534982e-10
-1.553659e-10
-1.569839e-10
-1.598062e-10
-1.644709e-10
-1.723174e-10
-2.977717e-10
-1.519622e-10
-1.539323e-10
-1.554519e-10
-1.582254e-10
-1.633744e-10
-1.707299e-10
-2.171587e-10
-1.507321e-10
-1.522646e-10
-1.542678e-10
-1.57037e-10
-1.615628e-10
-1.701744e-10
-3.432431e-10
-1.498303e-10
-1.507505e-10
-1.531776e-10
-1.563634e-10
-1.606396e-10
-1.904924e-10
-1.640139e-09
-1.491773e-10
-1.498485e-10
-1.523228e-10
-1.557784e-10
-1.589122e-10
-1.662243e-10
-4.152065e-10
-1.489404e-10
-1.493772e-10
-1.521316e-10
-1.555071e-10
-1.589096e-10
-1.612624e-10
-1.635122e-10
-1.490411e-10
-1.492038e-10
-1.519986e-10
-1.55247e-10
-1.576092e-10
-1.589652e-10
-1.490331e-10
-1.489999e-10
-1.517871e-10
-1.552131e-10
-1.575983e-10
-1.58796e-10
-1.489786e-10
-1.486604e-10
-1.515741e-10
-1.550555e-10
-1.580758e-10
-1.603806e-10
-1.492723e-10
-1.488671e-10
-1.520637e-10
-1.548722e-10
-1.593822e-10
-1.635506e-10
-2.181376e-10
-1.499578e-10
-1.495074e-10
-1.527149e-10
-1.557075e-10
-1.595665e-10
-1.698555e-10
-7.933435e-10
-1.507564e-10
-1.506879e-10
-1.542246e-10
-1.569433e-10
-1.612021e-10
-1.715618e-10
-5.909992e-10
-1.51723e-10
-1.518697e-10
-1.551167e-10
-1.575455e-10
-1.619965e-10
-1.709194e-10
-3.470615e-10
-1.529269e-10
-1.53055e-10
-1.561331e-10
-1.58654e-10
-1.634494e-10
-1.723514e-10
-2.272195e-10
-1.540783e-10
-1.542822e-10
-1.569036e-10
-1.594054e-10
-1.653421e-10
-1.744049e-10
-3.022723e-10
-1.556994e-10
-1.557451e-10
-1.577926e-10
-1.613666e-10
-1.668062e-10
-1.750359e-10
-3.069813e-10
-1.568983e-10
-1.571433e-10
-1.594861e-10
-1.622948e-10
-1.677644e-10
-1.757242e-10
-5.69352e-10
-1.582907e-10
-1.585417e-10
-1.606165e-10
-1.642458e-10
-1.683154e-10
-1.759716e-10
-5.677484e-10
-1.599321e-10
-1.600553e-10
-1.620863e-10
-1.654305e-10
-1.698245e-10
-1.767055e-10
-4.798262e-10
-1.611527e-10
-1.616391e-10
-1.635996e-10
-1.669226e-10
-1.712719e-10
-1.77629e-10
-3.632626e-10
-1.623107e-10
-1.629225e-10
-1.646077e-10
-1.682684e-10
-1.726979e-10
-1.869424e-10
-3.369361e-09
-1.632908e-10
-1.640324e-10
-1.659745e-10
-1.692436e-10
-1.743195e-10
-1.809008e-10
-2.619543e-10
-1.644256e-10
-1.648921e-10
-1.671984e-10
-1.702364e-10
-1.756701e-10
-1.824356e-10
-2.749091e-10
-1.651994e-10
-1.66112e-10
-1.682636e-10
-1.711822e-10
-1.764074e-10
-1.847365e-10
-2.047105e-10
-1.656399e-10
-1.666166e-10
-1.691042e-10
-1.722089e-10
-1.767703e-10
-1.854132e-10
-1.762329e-10
-1.658776e-10
-1.670023e-10
-1.694342e-10
-1.727005e-10
-1.77797e-10
-1.85104e-10
8.598353e-10
-1.659904e-10
-1.672562e-10
-1.697024e-10
-1.729557e-10
-1.779949e-10
-1.853193e-10
-2.04181e-10
-1.660365e-10
-1.674e-10
-1.698526e-10
-1.733654e-10
-1.781508e-10
-1.853296e-10
1.467908e-10
-1.660751e-10
-1.674867e-10
-1.699911e-10
-1.736225e-10
-1.782469e-10
-1.851048e-10
5.212706e-10
-1.661161e-10
-1.675528e-10
-1.701763e-10
-1.737206e-10
-1.783561e-10
-1.852199e-10
5.754737e-10
-1.661565e-10
-1.676055e-10
-1.703697e-10
-1.737993e-10
-1.784585e-10
-1.849007e-10
-2.603288e-11
-1.661969e-10
-1.677038e-10
-1.70435e-10
-1.738682e-10
-1.785501e-10
-1.845506e-10
-2.386366e-11
-1.662554e-10
-1.677874e-10
-1.704864e-10
-1.739303e-10
-1.786342e-10
-1.847205e-10
-3.778817e-11
-1.663288e-10
-1.679044e-10
-1.705285e-10
-1.739866e-10
-1.787129e-10
-1.860036e-10
1.426391e-09
-1.663547e-10
-1.679375e-10
-1.705673e-10
-1.740377e-10
-1.787849e-10
-1.8623e-10
6.727339e-10
-1.663959e-10
-1.685499e-10
-1.713938e-10
-1.740905e-10
-1.788538e-10
-1.862197e-10
9.61943e-10
-1.664467e-10
-1.685757e-10
-1.71427e-10
-1.741342e-10
-1.78931e-10
-1.865903e-10
1.035725e-09
-1.664659e-10
-1.685986e-10
-1.714582e-10
-1.741741e-10
-1.789951e-10
-1.868031e-10
1.117241e-09
-1.664812e-10
-1.686188e-10
-1.714868e-10
-1.74211e-10
-1.79051e-10
-1.868836e-10
1.20955e-09
-1.664968e-10
-1.686378e-10
-1.715136e-10
-1.742456e-10
-1.79108e-10
-1.874364e-10
-1.147909e-10
-1.665116e-10
-1.686551e-10
-1.715382e-10
-1.742782e-10
-1.793519e-10
-1.875168e-10
-1.541356e-10
-1.665233e-10
-1.686713e-10
-1.715612e-10
-1.743084e-10
-1.794572e-10
-1.875738e-10
-1.753249e-10
-1.665343e-10
-1.686864e-10
-1.715827e-10
-1.743365e-10
-1.794943e-10
-1.876227e-10
-2.496465e-10
-1.665445e-10
-1.687004e-10
-1.716027e-10
-1.74363e-10
-1.795294e-10
-1.876509e-10
-2.525713e-10
-1.665541e-10
-1.687134e-10
-1.716217e-10
-1.743877e-10
-1.795619e-10
-1.876696e-10
-2.578434e-10
-1.665629e-10
-1.687257e-10
-1.716394e-10
-1.74411e-10
-1.795926e-10
-1.876799e-10
-2.666168e-10
-1.665713e-10
-1.687377e-10
-1.716564e-10
-1.744381e-10
-1.797207e-10
-1.876863e-10
-2.751498e-10
-1.665791e-10
-1.687493e-10
-1.716723e-10
-1.744623e-10
-1.798746e-10
-1.876874e-10
-2.837875e-10
-1.665866e-10
-1.687603e-10
-1.716874e-10
-1.744822e-10
-1.798957e-10
-1.876857e-10
-2.879385e-10
-1.665936e-10
-1.687706e-10
-1.717017e-10
-1.74501e-10
-1.799156e-10
-1.876515e-10
-3.104456e-10
-1.666003e-10
-1.687803e-10
-1.717153e-10
-1.745186e-10
-1.799341e-10
-1.876544e-10
-3.048921e-10
-1.666065e-10
-1.687896e-10
-1.717282e-10
-1.745356e-10
-1.799516e-10
-1.877224e-10
-2.819625e-10
-1.666126e-10
-1.687986e-10
-1.717405e-10
-1.745516e-10
-1.799995e-10
-1.87834e-10
-2.523313e-10
-1.666185e-10
-1.688072e-10
-1.71756e-10
-1.745992e-10
-1.800787e-10
-1.879486e-10
-2.099658e-10
-1.666245e-10
-1.688184e-10
-1.718144e-10
-1.746786e-10
-1.801583e-10
-1.880703e-10
-1.564912e-10
-1.666324e-10
-1.68864e-10
-1.718764e-10
-1.747584e-10
-1.802378e-10
-1.881949e-10
-1.045769e-10
-1.666668e-10
-1.68913e-10
-1.719414e-10
-1.748385e-10
-1.803141e-10
-1.883263e-10
-2.756612e-11
-1.667042e-10
-1.689624e-10
-1.720069e-10
-1.749146e-10
-1.802858e-10
-1.884715e-10
-1.097307e-11
-1.667422e-10
-1.690121e-10
-1.720726e-10
-1.749956e-10
-1.803826e-10
-1.886154e-10
-6.017212e-12
-1.667808e-10
-1.690622e-10
-1.721387e-10
-1.750766e-10
-1.804823e-10
-1.887578e-10
-2.739947e-12
-1.668209e-10
-1.691127e-10
-1.722049e-10
-1.751581e-10
-1.805824e-10
-1.889002e-10
-6.975521e-13
-1.668614e-10
-1.691631e-10
-1.722712e-10
-1.752391e-10
-1.806828e-10
-1.89043e-10
-3.652273e-13
-1.669021e-10
-1.692144e-10
-1.723378e-10
-1.753204e-10
-1.807833e-10
-1.890897e-10
-1.894236e-10
-1.437189e-07
-1.395982e-07
-1.389582e-07
-1.389524e-07
-1.389524e-07
-1.389524e-07
-1.389524e-07
-1.389524e-07
-1.389524e-07
-1.389524e-07
-1.389524e-07
-1.389524e-07
-1.389524e-07
-1.389524e-07
-1.389524e-07
-1.389524e-07
-1.389524e-07
-1.389524e-07
-1.504361e-07
-1.392508e-07
-1.389523e-07
-1.389519e-07
-1.389519e-07
-1.389519e-07
-1.389519e-07
-1.389519e-07
-1.389519e-07
-1.389519e-07
-1.389519e-07
-1.389519e-07
-1.389519e-07
-1.389519e-07
-1.389519e-07
-1.389519e-07
-1.389519e-07
-1.389519e-07
-1.555575e-07
-1.395534e-07
-1.389527e-07
-1.38952e-07
-1.38952e-07
-1.38952e-07
-1.38952e-07
-1.38952e-07
-1.38952e-07
-1.38952e-07
-1.38952e-07
-1.38952e-07
-1.38952e-07
-1.38952e-07
-1.38952e-07
-1.38952e-07
-1.38952e-07
-1.38952e-07
-1.567695e-07
-1.395537e-07
-1.389528e-07
-1.38952e-07
-1.38952e-07
-1.38952e-07
-1.38952e-07
-1.38952e-07
-1.38952e-07
-1.38952e-07
-1.38952e-07
-1.38952e-07
-1.38952e-07
-1.38952e-07
-1.38952e-07
-1.38952e-07
-1.38952e-07
-1.38952e-07
-1.574545e-07
-1.3957e-07
-1.389529e-07
-1.38952e-07
-1.38952e-07
-1.38952e-07
-1.38952e-07
-1.38952e-07
-1.38952e-07
-1.38952e-07
-1.38952e-07
-1.38952e-07
-1.38952e-07
-1.38952e-07
-1.38952e-07
-1.38952e-07
-1.38952e-07
-1.38952e-07
-1.579183e-07
-1.396442e-07
-1.38953e-07
-1.38952e-07
-1.38952e-07
-1.38952e-07
-1.38952e-07
-1.38952e-07
-1.38952e-07
-1.38952e-07
-1.38952e-07
-1.38952e-07
-1.38952e-07
-1.38952e-07
-1.38952e-07
-1.38952e-07
-1.38952e-07
-1.38952e-07
-1.581313e-07
-1.39743e-07
-1.389531e-07
-1.38952e-07
-1.38952e-07
-1.38952e-07
-1.38952e-07
-1.38952e-07
-1.38952e-07
-1.38952e-07
-1.38952e-07
-1.38952e-07
-1.38952e-07
-1.38952e-07
-1.38952e-07
-1.38952e-07
-1.38952e-07
-1.38952e-07
-1.635529e-07
-1.398943e-07
-1.389532e-07
-1.38952e-07
-1.38952e-07
-1.38952e-07
-1.38952e-07
-1.38952e-07
-1.38952e-07
-1.38952e-07
-1.38952e-07
-1.38952e-07
-1.38952e-07
-1.38952e-07
-1.38952e-07
-1.38952e-07
-1.38952e-07
-1.38952e-07
-1.749915e-07
-1.399239e-07
-1.389532e-07
-1.38952e-07
-1.38952e-07
-1.38952e-07
-1.38952e-07
-1.38952e-07
-1.38952e-07
-1.38952e-07
-1.38952e-07
-1.38952e-07
-1.38952e-07
-1.38952e-07
-1.38952e-07
-1.38952e-07
-1.38952e-07
-1.38952e-07
-1.702621e-07
-1.398497e-07
-1.389532e-07
-1.38952e-07
-1.38952e-07
-1.38952e-07
-1.38952e-07
-1.38952e-07
-1.38952e-07
-1.38952e-07
-1.38952e-07
-1.38952e-07
-1.38952e-07
-1.38952e-07
-1.38952e-07
-1.38952e-07
-1.38952e-07
-1.38952e-07
-1.684956e-07
-1.398234e-07
-1.389532e-07
-1.38952e-07
-1.38952e-07
-1.38952e-07
-1.38952e-07
-1.38952e-07
-1.38952e-07
-1.38952e-07
-1.38952e-07
-1.38952e-07
-1.38952e-07
-1.38952e-07
-1.38952e-07
-1.38952e-07
-1.38952e-07
-1.38952e-07
-1.637021e-07
-1.397848e-07
-1.389532e-07
-1.38952e-07
-1.38952e-07
-1.38952e-07
-1.38952e-07
-1.38952e-07
-1.38952e-07
-1.38952e-07
-1.38952e-07
-1.38952e-07
-1.38952e-07
-1.38952e-07
-1.38952e-07
-1.38952e-07
-1.38952e-07
-1.38952e-07
-1.597726e-07
-1.397598e-07
-1.389532e-07
-1.38952e-07
-1.38952e-07
-1.38952e-07
-1.38952e-07
-1.38952e-07
-1.38952e-07
-1.38952e-07
-1.38952e-07
-1.38952e-07
-1.38952e-07
-1.38952e-07
-1.38952e-07
-1.38952e-07
-1.38952e-07
-1.38952e-07
-1.597153e-07
-1.397117e-07
-1.389534e-07
-1.38952e-07
-1.38952e-07
-1.38952e-07
-1.38952e-07
-1.38952e-07
-1.38952e-07
-1.38952e-07
-1.38952e-07
-1.38952e-07
-1.38952e-07
-1.38952e-07
-1.38952e-07
-1.38952e-07
-1.38952e-07
-1.38952e-07
-1.302546e-07
-1.40237e-07
-1.389547e-07
-1.38952e-07
-1.38952e-07
-1.38952e-07
-1.38952e-07
-1.38952e-07
-1.38952e-07
-1.38952e-07
-1.38952e-07
-1.38952e-07
-1.38952e-07
-1.38952e-07
-1.38952e-07
-1.38952e-07
-1.38952e-07
-1.38952e-07
-1.225069e-07
-1.404874e-07
-1.38976e-07
-1.389521e-07
-1.38952e-07
-1.38952e-07
-1.38952e-07
-1.38952e-07
-1.38952e-07
-1.38952e-07
-1.38952e-07
-1.38952e-07
-1.38952e-07
-1.38952e-07
-1.38952e-07
-1.38952e-07
-1.38952e-07
-1.38952e-07
-1.165195e-07
-1.403971e-07
-1.389478e-07
-1.389589e-07
-1.38952e-07
-1.38952e-07
-1.38952e-07
-1.38952e-07
-1.38952e-07
-1.38952e-07
-1.38952e-07
-1.38952e-07
-1.38952e-07
-1.38952e-07
-1.38952e-07
-1.38952e-07
-1.38952e-07
-1.38952e-07
-1.093821e-07
-1.404542e-07
-1.389497e-07
-1.389502e-07
-1.389541e-07
-1.38952e-07
-1.38952e-07
-1.38952e-07
-1.38952e-07
-1.38952e-07
-1.38952e-07
-1.38952e-07
-1.38952e-07
-1.38952e-07
-1.38952e-07
-1.38952e-07
-1.38952e-07
-1.38952e-07
-1.026311e-07
-1.404735e-07
-1.389544e-07
-1.389502e-07
-1.389513e-07
-1.389524e-07
-1.38952e-07
-1.38952e-07
-1.38952e-07
-1.38952e-07
-1.38952e-07
-1.38952e-07
-1.38952e-07
-1.38952e-07
-1.38952e-07
-1.38952e-07
-1.38952e-07
-1.38952e-07
-9.638384e-08
-1.405244e-07
-1.389548e-07
-1.389519e-07
-1.389515e-07
-1.38952e-07
-1.389521e-07
-1.38952e-07
-1.38952e-07
-1.38952e-07
-1.38952e-07
-1.38952e-07
-1.38952e-07
-1.38952e-07
-1.38952e-07
-1.38952e-07
-1.38952e-07
-1.38952e-07
-9.047754e-08
-1.40541e-07
-1.389549e-07
-1.38952e-07
-1.38952e-07
-1.389519e-07
-1.38952e-07
-1.38952e-07
-1.38952e-07
-1.38952e-07
-1.38952e-07
-1.38952e-07
-1.38952e-07
-1.38952e-07
-1.38952e-07
-1.38952e-07
-1.38952e-07
-1.38952e-07
-8.515463e-08
-1.405765e-07
-1.38955e-07
-1.38952e-07
-1.38952e-07
-1.38952e-07
-1.38952e-07
-1.38952e-07
-1.38952e-07
-1.38952e-07
-1.38952e-07
-1.38952e-07
-1.38952e-07
-1.38952e-07
-1.38952e-07
-1.38952e-07
-1.38952e-07
-1.38952e-07
-7.831018e-08
-1.405755e-07
-1.38955e-07
-1.38952e-07
-1.38952e-07
-1.38952e-07
-1.38952e-07
-1.38952e-07
-1.38952e-07
-1.38952e-07
-1.38952e-07
-1.38952e-07
-1.38952e-07
-1.38952e-07
-1.38952e-07
-1.38952e-07
-1.38952e-07
-1.38952e-07
-7.454814e-08
-1.406251e-07
-1.389551e-07
-1.38952e-07
-1.38952e-07
-1.38952e-07
-1.38952e-07
-1.38952e-07
-1.38952e-07
-1.38952e-07
-1.38952e-07
-1.38952e-07
-1.38952e-07
-1.38952e-07
-1.38952e-07
-1.38952e-07
-1.38952e-07
-1.38952e-07
-7.006718e-08
-1.406124e-07
-1.389551e-07
-1.38952e-07
-1.38952e-07
-1.38952e-07
-1.38952e-07
-1.38952e-07
-1.38952e-07
-1.38952e-07
-1.38952e-07
-1.38952e-07
-1.38952e-07
-1.38952e-07
-1.38952e-07
-1.38952e-07
-1.38952e-07
-1.38952e-07
-6.564567e-08
-1.405828e-07
-1.389551e-07
-1.38952e-07
-1.38952e-07
-1.38952e-07
-1.38952e-07
-1.38952e-07
-1.38952e-07
-1.38952e-07
-1.38952e-07
-1.38952e-07
-1.38952e-07
-1.38952e-07
-1.38952e-07
-1.38952e-07
-1.38952e-07
-1.38952e-07
-6.170612e-08
-1.405497e-07
-1.38955e-07
-1.38952e-07
-1.389521e-07
-1.38952e-07
-1.38952e-07
-1.38952e-07
-1.38952e-07
-1.38952e-07
-1.38952e-07
-1.38952e-07
-1.38952e-07
-1.38952e-07
-1.38952e-07
-1.38952e-07
-1.38952e-07
-1.38952e-07
-5.768532e-08
-1.405343e-07
-1.38955e-07
-1.38952e-07
-1.389521e-07
-1.38952e-07
-1.38952e-07
-1.38952e-07
-1.38952e-07
-1.38952e-07
-1.38952e-07
-1.38952e-07
-1.38952e-07
-1.38952e-07
-1.38952e-07
-1.38952e-07
-1.38952e-07
-1.38952e-07
-5.387752e-08
-1.403966e-07
-1.389548e-07
-1.389522e-07
-1.389524e-07
-1.38952e-07
-1.38952e-07
-1.38952e-07
-1.38952e-07
-1.38952e-07
-1.38952e-07
-1.38952e-07
-1.38952e-07
-1.38952e-07
-1.38952e-07
-1.38952e-07
-1.38952e-07
-1.38952e-07
-5.03812e-08
-1.402577e-07
-1.389547e-07
-1.389652e-07
-1.389624e-07
-1.389519e-07
-1.38952e-07
-1.38952e-07
-1.389521e-07
-1.38952e-07
-1.38952e-07
-1.38952e-07
-1.38952e-07
-1.38952e-07
-1.38952e-07
-1.38952e-07
-1.38952e-07
-1.38952e-07
-4.751062e-08
-1.398853e-07
-1.389562e-07
-1.393971e-07
-1.392588e-07
-1.389567e-07
-1.389521e-07
-1.389557e-07
-1.389536e-07
-1.389521e-07
-1.38952e-07
-1.38952e-07
-1.38952e-07
-1.38952e-07
-1.38952e-07
-1.38952e-07