/*--------------------------------*- C++ -*----------------------------------*\
| =========                 |                                                 |
| \\      /  F ield         | OpenFOAM: The Open Source CFD Toolbox           |
|  \\    /   O peration     | Version:  2206                                  |
|   \\  /    A nd           | Website:  www.openfoam.com                      |
|    \\/     M anipulation  |                                                 |
\*---------------------------------------------------------------------------*/
FoamFile
{
    version     2.0;
    format      ascii;
    arch        "LSB;label=32;scalar=64";
    class       volVectorField;
    location    "1.8";
    object      ddt0(U.b);
}
// * * * * * * * * * * * * * * * * * * * * * * * * * * * * * * * * * * * * * //

dimensions      [0 1 -2 0 0 0 0];

internalField   nonuniform List<vector> 
13078
(
(0.0002125571 0.0004061141 5.284716e-27)
(0.0002813431 0.0004943808 -1.445448e-27)
(0.0002886906 0.0007585234 -1.946e-26)
(0.0002899715 0.0009988069 0)
(0.0002992456 0.001205653 -1.488527e-26)
(0.0003092775 0.001420149 -1.932618e-26)
(0.0003238512 0.001602875 -2.331816e-26)
(-7.778434e-05 0.0001561163 0)
(5.377917e-05 0.0004190973 -1.252614e-27)
(5.633907e-05 0.0007148192 0)
(4.830381e-05 0.0009859092 0)
(7.492756e-05 0.001220953 -1.358247e-27)
(0.0001110132 0.001442463 -6.981322e-28)
(0.0001558505 0.001631073 -1.436386e-27)
(-0.0002802479 0.0001348235 8.028137e-26)
(-0.0002687945 0.0004182407 -8.253579e-26)
(-0.0002382917 0.0007150287 7.256804e-27)
(-0.0002100253 0.001005987 1.963702e-26)
(-0.0001601004 0.001263324 1.435307e-26)
(-9.576285e-05 0.001494151 0)
(-1.965152e-05 0.00169273 -1.257098e-31)
(-0.0006265932 0.0001503078 8.624508e-26)
(-0.0005981953 0.0004537665 -1.759454e-25)
(-0.0005476334 0.0007640317 -1.815998e-25)
(-0.0004820599 0.001055359 -9.404408e-26)
(-0.0004088714 0.001329871 3.115804e-27)
(-0.0003161982 0.001576607 0)
(-0.0002071106 0.00178926 1.725356e-27)
(-0.0009588634 0.0001633607 -3.548993e-29)
(-0.0009311041 0.0004955286 -9.238632e-26)
(-0.0008652768 0.0008267762 -1.911669e-25)
(-0.0007829729 0.001138923 -1.998439e-25)
(-0.0006740177 0.001422636 9.479933e-26)
(-0.0005540276 0.001691214 -5.760543e-30)
(-0.0004108624 0.001922754 1.228118e-26)
(-0.001323033 0.0001784807 0)
(-0.001283293 0.000545089 1.12777e-28)
(-0.001210238 0.0009063938 -1.762175e-28)
(-0.001106831 0.001243582 -1.035303e-25)
(-0.000973364 0.001556956 8.528246e-28)
(-0.0008119383 0.001837372 -8.503797e-27)
(-0.00063585 0.002094356 -2.845893e-26)
(-0.001720867 0.0002038199 0)
(-0.001673291 0.0006070124 -9.620185e-26)
(-0.001587224 0.001000464 -1.003637e-25)
(-0.001466528 0.001371197 -9.735043e-28)
(-0.001302213 0.001719867 -1.131895e-25)
(-0.001109298 0.002032477 6.928065e-28)
(-0.0008841361 0.002305259 0)
(-0.002159523 0.0002268119 1.851657e-25)
(-0.00211034 0.0006758818 -9.537453e-26)
(-0.002009778 0.001111628 -1.002956e-25)
(-0.001862281 0.001528514 0)
(-0.001668211 0.001916685 -2.320874e-25)
(-0.001439413 0.002265876 8.214964e-29)
(-0.001175483 0.002572379 4.136865e-28)
(-0.002653612 0.0002542291 2.486558e-30)
(-0.002595884 0.0007579367 1.850865e-25)
(-0.002479212 0.001246077 9.769822e-26)
(-0.002305984 0.001713798 -7.100203e-28)
(-0.002078725 0.002149531 -4.67914e-25)
(-0.001810744 0.002541952 -6.354097e-28)
(-0.001501691 0.002887346 0)
(-0.003209468 0.0002861573 -1.666219e-25)
(-0.003142298 0.0008535705 1.743014e-25)
(-0.003006939 0.001403433 9.38503e-26)
(-0.002805552 0.001930335 -2.072415e-25)
(-0.002541492 0.002421612 2.973763e-29)
(-0.00223025 0.002864488 0)
(-0.001871347 0.003255082 0)
(-0.003837295 0.0003232597 0)
(-0.003759316 0.000964507 0)
(-0.003602877 0.001585888 1.732868e-25)
(-0.003370241 0.002181465 -1.96165e-25)
(-0.003065057 0.002737122 -5.336404e-29)
(-0.002705575 0.003238392 0)
(-0.002291001 0.003681034 0)
(-0.004548276 0.0003661083 0)
(-0.004458024 0.001092479 -1.341183e-25)
(-0.004277833 0.001796267 1.522628e-25)
(-0.00401015 0.002471019 1.819005e-25)
(-0.003658908 0.003100907 -2.076472e-25)
(-0.003245129 0.00366954 0)
(-0.002768024 0.004172011 2.853474e-25)
(-0.005355017 0.0004153381 0)
(-0.005250805 0.001239509 -1.008669e-25)
(-0.005043764 0.002037879 2.724782e-27)
(-0.004736374 0.002803388 1.550117e-25)
(-0.004333884 0.003518684 -1.918316e-25)
(-0.003858536 0.004164868 2.360469e-25)
(-0.00331115 0.004736094 -1.252834e-28)
(-0.006271723 0.0004717004 -4.733948e-26)
(-0.006151494 0.001407848 0)
(-0.005914034 0.00231465 3.48306e-27)
(-0.005560566 0.003183525 4.667244e-27)
(-0.005103867 0.003995747 -3.304187e-25)
(-0.004556758 0.004732221 2.162025e-25)
(-0.003930226 0.005382392 -2.743483e-25)
(-0.007314235 0.0005361083 6.528357e-27)
(-0.007175853 0.001600266 0)
(-0.006904734 0.002632208 8.715077e-27)
(-0.006496914 0.003624877 -3.894114e-27)
(-0.00599219 0.004531471 -2.447292e-25)
(-0.00535345 0.005378888 0)
(-0.004636713 0.006120989 2.562011e-25)
(-0.008500133 0.0006093183 0)
(-0.008340893 0.001818548 5.323241e-26)
(-0.008032503 0.002989154 0)
(-0.007580477 0.004106052 1.054457e-26)
(-0.006989932 0.005156431 -1.771649e-26)
(-0.006260861 0.006118386 -2.036721e-26)
(-0.005443445 0.006964026 2.077592e-25)
(-0.009849435 0.0006926844 0)
(-0.009666107 0.002067515 2.62349e-25)
(-0.009314174 0.003398611 6.505756e-27)
(-0.008801587 0.004667525 8.801531e-27)
(-0.008126691 0.005864085 0)
(-0.00729587 0.006959636 0)
(-0.006364833 0.007924088 0)
(-0.01138479 0.0007873833 2.512763e-25)
(-0.01117394 0.002350207 2.278823e-25)
(-0.0107729 0.003863309 1.566127e-26)
(-0.01018976 0.005305794 1.061269e-26)
(-0.009421206 0.006666754 0)
(-0.008477258 0.007914999 -1.894979e-26)
(-0.007417147 0.009015492 6.721974e-26)
(-0.01313147 0.0008946977 3.68556e-25)
(-0.01288919 0.002670677 3.410956e-25)
(-0.01243268 0.004390191 2.804371e-26)
(-0.01176932 0.006029791 2.538248e-26)
(-0.01089261 0.007575903 0)
(-0.009830294 0.008995226 2.308779e-26)
(-0.008618674 0.01025417 4.056244e-26)
(-0.01511783 0.001016165 5.0898e-25)
(-0.01483967 0.003033391 9.45803e-25)
(-0.01432117 0.004987138 4.146728e-25)
(-0.01356986 0.006854738 0)
(-0.01256853 0.008628429 -2.955231e-25)
(-0.01140199 0.01019862 -4.319707e-25)
(-0.009992678 0.01165507 -9.705439e-26)
(-0.01737544 0.001153281 6.755582e-25)
(-0.01705616 0.003442704 1.260284e-24)
(-0.01646745 0.0056591 1.117695e-24)
(-0.01561921 0.007773163 4.387565e-25)
(-0.01451616 0.009758967 -4.412251e-26)
(-0.013162 0.01159516 2.023535e-25)
(-0.01155892 0.01324507 -1.765772e-27)
(-0.01993986 0.001308147 0)
(-0.01957347 0.003905082 8.105172e-25)
(-0.01890531 0.006419784 7.278643e-25)
(-0.01794436 0.008820302 1.277524e-24)
(-0.01670095 0.01107358 0)
(-0.01516261 0.01316447 3.270932e-25)
(-0.01334696 0.01504242 -1.403246e-27)
(-0.02285074 0.001482557 -1.095933e-24)
(-0.02243089 0.004426049 0)
(-0.0216742 0.007277098 0)
(-0.02058762 0.01000066 -4.774912e-26)
(-0.01918131 0.01255839 -7.417898e-25)
(-0.01743368 0.01493117 0)
(-0.0153975 0.01706483 2.883059e-25)
(-0.02615201 0.001678499 -2.723686e-24)
(-0.02567172 0.005011427 0)
(-0.02481687 0.008240967 0)
(-0.0235921 0.0113304 -1.002679e-24)
(-0.02200987 0.01424524 -1.705223e-24)
(-0.02002932 0.01698219 6.766208e-25)
(-0.01779539 0.01931511 0)
(-0.02989195 0.001897947 -1.671174e-24)
(-0.0293435 0.005667114 -1.477899e-26)
(-0.02837992 0.009320504 -1.503107e-24)
(-0.02700178 0.01281658 -6.617832e-26)
(-0.02522871 0.01610766 -8.451574e-26)
(-0.02305877 0.01915735 8.961812e-25)
(-0.02047781 0.02192311 0)
(-0.03412321 0.002142879 0)
(-0.03349871 0.006399493 1.941144e-24)
(-0.03241555 0.01052829 -1.810667e-24)
(-0.03086837 0.0144853 0)
(-0.0288777 0.01821988 1.223198e-24)
(-0.02644903 0.02168544 -4.509601e-25)
(-0.02353301 0.02485374 -2.551709e-25)
(-0.0389023 0.00241473 2.442521e-24)
(-0.03819505 0.007213612 2.343085e-24)
(-0.03698188 0.01187307 -2.191279e-24)
(-0.03525256 0.01634585 0)
(-0.03302701 0.02057786 2.208698e-25)
(-0.03030747 0.02451616 2.063087e-28)
(-0.02702768 0.02813503 -2.96014e-25)
(-0.04428752 0.00271464 2.9191e-24)
(-0.04349665 0.008110837 2.802867e-24)
(-0.0421411 0.01336197 -2.635246e-24)
(-0.04021759 0.01841033 0)
(-0.03774186 0.0232022 0)
(-0.03472093 0.02769775 1.790263e-24)
(-0.03107174 0.03192151 1.286621e-24)
(-0.05034077 0.003038104 3.472162e-24)
(-0.04946994 0.009093096 3.360963e-24)
(-0.04795942 0.01500073 0)
(-0.04583124 0.02068671 -2.653664e-24)
(-0.04308475 0.02609348 2.91924e-25)
(-0.03973008 0.03114088 4.046693e-24)
(-0.03573649 0.03572698 -1.176691e-24)
(-0.05711132 0.003406635 4.085462e-24)
(-0.05621413 0.01012159 0)
(-0.0545175 0.01677897 3.818604e-24)
(-0.05217448 0.0231871 -3.311575e-24)
(-0.04914642 0.02930641 3.086015e-24)
(-0.04542333 0.03507172 5.332357e-24)
(-0.04095051 0.04040141 2.164987e-24)
(-0.06474085 0.003751386 0)
(-0.06369528 0.011277 0)
(-0.06189231 0.01869507 8.78291e-24)
(-0.0593358 0.02590003 0)
(-0.05603462 0.03281378 7.377214e-24)
(-0.05196857 0.0393904 3.223738e-24)
(-0.04707285 0.04558782 -2.66482e-24)
(-0.07320704 0.004165913 5.62735e-24)
(-0.07200058 0.0125513 -5.345026e-24)
(-0.07021164 0.02062972 -5.086416e-24)
(-0.06744065 0.02875332 0)
(-0.06384132 0.0365764 4.386815e-24)
(-0.05945795 0.04403629 0)
(-0.05415965 0.05108356 -2.080622e-24)
(-0.0825797 0.004570709 6.506009e-24)
(-0.08137063 0.01372916 -6.31518e-24)
(-0.0793104 0.02287288 -1.798459e-23)
(-0.07666876 0.03161846 -1.152681e-23)
(-0.07268775 0.04053053 4.690624e-24)
(-0.06801536 0.04902509 -5.813019e-25)
(-0.06230859 0.05714315 6.737146e-25)
(-0.09286348 0.004987388 -1.485969e-26)
(-0.09160531 0.01495706 -4.553328e-26)
(-0.08959389 0.02483321 -7.317359e-24)
(-0.08670519 0.03471917 -1.261956e-23)
(-0.08269313 0.04458507 7.180339e-24)
(-0.07779716 0.05425175 -1.304281e-24)
(-0.07177489 0.06361795 -3.050356e-24)
(-0.1040754 0.005401774 1.623636e-26)
(-0.1027573 0.01621154 4.989803e-26)
(-0.1007768 0.02698248 -7.782251e-24)
(-0.09773334 0.03793911 -3.836054e-24)
(-0.09410801 0.04836674 5.591863e-24)
(-0.08903175 0.05943799 -5.083502e-24)
(-0.082733 0.07028991 0)
(-0.1161877 0.005781257 0)
(-0.1148177 0.01734591 0)
(-0.1129354 0.02885816 -9.317387e-24)
(-0.1102146 0.04051235 -9.90381e-24)
(-0.1063558 0.05256469 -1.441324e-23)
(-0.102047 0.06419848 -1.368564e-23)
(-0.09535867 0.07691109 0)
(-0.1291342 0.006103414 3.710272e-26)
(-0.1276859 0.01831315 -1.113258e-25)
(-0.1258976 0.0304936 -3.808506e-25)
(-0.1234769 0.04282683 0)
(-0.1201774 0.05552645 -1.954905e-23)
(-0.115914 0.06892521 1.702222e-24)
(-0.1097926 0.08318954 4.13225e-24)
(-0.1427564 0.006340957 1.248826e-23)
(-0.1412345 0.01904494 -1.202373e-25)
(-0.1396143 0.03177812 1.200088e-23)
(-0.1375831 0.04483234 0)
(-0.1348696 0.05854761 -1.271234e-23)
(-0.1309236 0.07346713 8.722684e-25)
(-0.1267061 0.08850178 2.092487e-23)
(-0.1568571 0.00646736 1.395505e-23)
(-0.1553618 0.01943547 1.360578e-23)
(-0.1539629 0.03254475 1.350001e-23)
(-0.1524424 0.04608283 1.158272e-24)
(-0.1505718 0.06036234 3.054398e-24)
(-0.1479458 0.07581519 -6.61971e-24)
(-0.14461 0.09340153 9.470006e-24)
(-0.1711846 0.006500317 0)
(-0.1698474 0.01926581 -1.494503e-23)
(-0.1688185 0.03256227 -1.50466e-23)
(-0.1679225 0.04643893 -5.962451e-25)
(-0.1672031 0.06135273 1.615993e-23)
(-0.166278 0.07803718 2.010794e-24)
(-0.1642653 0.09776924 0)
(-0.1855455 0.00622213 -1.707537e-23)
(-0.1841672 0.01887113 -3.28012e-23)
(-0.1839112 0.03144587 -1.525893e-23)
(-0.1839821 0.04543184 -3.312538e-23)
(-0.184728 0.06070201 1.807654e-23)
(-0.1860915 0.07794417 -1.431838e-23)
(-0.18693 0.09846175 5.678633e-22)
(-0.1991384 0.005731144 -1.856506e-23)
(-0.1982845 0.0173942 1.151727e-25)
(-0.1982796 0.02970966 0)
(-0.2002305 0.04254837 -4.971257e-25)
(-0.2028253 0.05801718 -3.687895e-23)
(-0.2063471 0.07615013 3.021211e-22)
(-0.2090208 0.09938416 6.057344e-22)
(-0.211166 0.004933507 1.99292e-23)
(-0.2110077 0.01513893 -1.972688e-25)
(-0.2121941 0.02612773 -3.509216e-25)
(-0.2151072 0.03868886 4.314172e-23)
(-0.2204759 0.05302276 -3.440726e-22)
(-0.2251815 0.07371797 8.265836e-22)
(-0.2272387 0.101809 3.739303e-22)
(-0.2207847 0.003811215 2.105538e-23)
(-0.2218175 0.01204315 0)
(-0.2242298 0.02129332 -5.647586e-25)
(-0.2291477 0.03253218 -1.390093e-22)
(-0.2344307 0.04898151 -5.881328e-22)
(-0.2396411 0.07281208 -2.917283e-22)
(-0.240324 0.1081215 1.139578e-21)
(-0.2273698 0.002440484 0)
(-0.2298707 0.007974459 -2.107891e-25)
(-0.2334204 0.01497269 1.664948e-22)
(-0.2396341 0.02618213 3.047978e-22)
(-0.2443817 0.04597396 4.051356e-22)
(-0.2465364 0.07624254 8.890334e-22)
(-0.2468476 0.1142953 1.511522e-21)
(-0.2305789 0.0008000337 0)
(-0.2341247 0.003082097 -7.297857e-22)
(-0.2384357 0.008085821 -3.95512e-22)
(-0.2443704 0.02115524 1.527264e-21)
(-0.2478097 0.04597844 1.532373e-21)
(-0.2481661 0.0808205 2.080255e-21)
(-0.2455406 0.1256259 -4.616407e-22)
(-0.2296061 -0.001182221 2.236307e-23)
(-0.2340118 -0.002193499 -4.104565e-22)
(-0.2385808 0.002938425 -1.224003e-21)
(-0.2418785 0.01946101 1.15063e-21)
(-0.2443137 0.04804592 6.777414e-22)
(-0.2426986 0.08754523 9.716906e-22)
(-0.2383381 0.1343192 4.650491e-22)
(-0.2239154 -0.00328616 9.073415e-23)
(-0.2287265 -0.006456277 8.78749e-22)
(-0.2322338 0.0009154304 -3.273423e-22)
(-0.2341383 0.02098499 -3.086419e-22)
(-0.2342538 0.05399263 -1.051127e-21)
(-0.2299914 0.09706805 5.765407e-22)
(-0.2241355 0.1485867 -1.031691e-21)
(-0.2137165 -0.004664889 7.773974e-22)
(-0.2181428 -0.008181712 6.907754e-22)
(-0.2200849 0.00138659 1.54748e-22)
(-0.2207939 0.02458411 4.364635e-22)
(-0.2185992 0.06163144 -1.174316e-21)
(-0.2129422 0.1093871 1.208654e-22)
(-0.204346 0.1638759 -6.881988e-22)
(-0.1986888 -0.004942494 8.889337e-22)
(-0.2021511 -0.007723191 -2.236746e-22)
(-0.2028709 0.004629138 -3.581935e-22)
(-0.2019543 0.0314455 7.742328e-22)
(-0.1978694 0.07162809 -1.348115e-21)
(-0.1914894 0.1229436 6.251683e-22)
(-0.1811524 0.181735 -3.942496e-22)
(-0.1784042 -0.004461862 3.930113e-22)
(-0.1806176 -0.005079519 -1.553634e-22)
(-0.1809294 0.01005917 -1.413673e-21)
(-0.1787623 0.0398932 3.230409e-22)
(-0.1731471 0.08368625 -9.842549e-22)
(-0.1649772 0.138011 5.98339e-22)
(-0.1548592 0.1994745 -4.505765e-22)
(-0.1528187 -0.002939544 9.946257e-24)
(-0.1540531 -0.001789364 -4.022051e-23)
(-0.1541308 0.01606756 -1.114183e-21)
(-0.1510309 0.05007785 4.979403e-22)
(-0.1446061 0.09686283 4.036847e-22)
(-0.1357547 0.1527386 2.229857e-21)
(-0.1266305 0.2159686 2.307024e-21)
(-0.1229734 -0.001376979 -2.175035e-22)
(-0.1234993 0.002073972 -1.551966e-22)
(-0.1226568 0.02198189 6.9425e-23)
(-0.1197608 0.05816376 3.850448e-22)
(-0.1139175 0.1066643 2.523036e-22)
(-0.1056746 0.164168 9.471174e-22)
(-0.09694456 0.230741 2.104466e-22)
(-0.09003216 5.97012e-05 -4.529813e-23)
(-0.08996851 0.005402565 -6.606008e-23)
(-0.08909116 0.02664905 8.022268e-23)
(-0.0865465 0.06463933 2.846125e-23)
(-0.08179044 0.114889 -6.69995e-23)
(-0.07499246 0.1739341 -8.990536e-23)
(-0.06620541 0.2406613 9.096723e-23)
(-0.05487914 0.001338868 1.428501e-23)
(-0.05463482 0.008247732 -5.728094e-23)
(-0.05364188 0.03041005 -3.532538e-23)
(-0.05122062 0.06995683 -3.109003e-23)
(-0.04771902 0.1216585 1.334139e-22)
(-0.04259268 0.1823166 1.029384e-22)
(-0.03588429 0.2512692 -2.654811e-22)
(-0.01751059 0.001890065 -8.585891e-25)
(-0.01734361 0.009988343 -1.707524e-23)
(-0.0162941 0.03341216 -3.209772e-23)
(-0.01443278 0.07374934 1.201938e-23)
(-0.01244451 0.1262303 -2.366798e-22)
(-0.009433214 0.1882987 -4.55365e-22)
(-0.005688954 0.2580201 -5.612449e-22)
(0.0210255 0.00178371 -1.504072e-24)
(0.02108729 0.01046839 -1.763041e-23)
(0.02179005 0.03474002 -7.803182e-23)
(0.02221535 0.07533916 1.171432e-22)
(0.02229634 0.1282993 4.049198e-23)
(0.02240578 0.1912272 -4.403045e-22)
(0.02300997 0.2616599 -5.472732e-22)
(0.05767898 0.001188794 -1.008105e-22)
(0.05802515 0.009592847 -1.82137e-23)
(0.05814403 0.03371508 1.735429e-23)
(0.05687329 0.0736706 4.170688e-23)
(0.05463405 0.1262591 1.333156e-22)
(0.05146925 0.1895759 2.60285e-22)
(0.04787301 0.2605762 2.173117e-22)
(0.09214184 0.0003309164 -2.47081e-22)
(0.09274998 0.007564216 1.026265e-22)
(0.09193995 0.03048717 8.894074e-24)
(0.08923859 0.06888869 -2.157563e-23)
(0.08472443 0.1204059 -1.974234e-22)
(0.07830058 0.1825313 1.030411e-22)
(0.0700094 0.2531879 2.623622e-22)
(0.1246321 -0.0007733577 3.738804e-24)
(0.1252001 0.004381811 2.03791e-22)
(0.1236375 0.0251845 1.877502e-22)
(0.1197417 0.06155872 -1.887609e-22)
(0.1132639 0.110934 -5.300665e-22)
(0.103856 0.1705583 -7.468255e-23)
(0.09297385 0.2399919 -1.860539e-22)
(0.153993 -0.002298884 3.246341e-22)
(0.1545159 0.0003703791 4.827418e-23)
(0.1532041 0.0183742 1.019542e-21)
(0.1490769 0.05207363 -3.696537e-22)
(0.1420059 0.0990586 -8.226512e-22)
(0.1316958 0.1553637 4.825749e-22)
(0.1193736 0.219494 1.865024e-21)
(0.1789833 -0.004018692 1.676543e-23)
(0.1800877 -0.003747499 1.322597e-22)
(0.1789161 0.01163488 1.535794e-22)
(0.1760449 0.04165523 -4.964104e-22)
(0.1698982 0.08504403 -8.415036e-23)
(0.1607892 0.1382313 1.010332e-22)
(0.1485592 0.1984055 -4.772984e-22)
(0.1988178 -0.004658703 9.694102e-24)
(0.2012343 -0.006638602 -3.382419e-22)
(0.2009431 0.006032061 -8.091919e-23)
(0.1990209 0.03294078 3.562784e-22)
(0.1946706 0.0726801 1.261323e-21)
(0.1872771 0.1224067 2.0588e-22)
(0.1749899 0.1782892 -9.090913e-22)
(0.2136889 -0.004269182 -6.516678e-22)
(0.2170193 -0.006991436 -1.040174e-21)
(0.2182814 0.002527585 4.95086e-22)
(0.2179749 0.02601915 -5.050818e-22)
(0.2153858 0.0623901 1.07663e-21)
(0.2091177 0.1072878 -4.121611e-22)
(0.1996547 0.1594936 -3.049468e-21)
(0.2237808 -0.002854236 -8.890132e-22)
(0.2273687 -0.004879104 -2.657579e-22)
(0.2300347 0.002218158 1.597854e-22)
(0.2315837 0.02182199 -4.745567e-22)
(0.23113 0.05439276 1.927434e-21)
(0.226954 0.09544221 2.183714e-21)
(0.2216178 0.144193 -1.241753e-21)
(0.2289358 -0.0006750791 2.192491e-23)
(0.232205 -0.0007549553 3.545938e-22)
(0.2358787 0.004236291 -9.730649e-23)
(0.2392302 0.02015749 1.00693e-21)
(0.241527 0.04786443 1.317641e-21)
(0.2399862 0.08614314 2.569736e-22)
(0.2357059 0.1316594 -7.374025e-23)
(0.2292266 0.001286435 0)
(0.2316616 0.004338865 -6.006931e-24)
(0.2356354 0.009084869 -5.471645e-22)
(0.2414725 0.02139145 1.342008e-21)
(0.2451083 0.04521772 2.650925e-22)
(0.2455296 0.07868095 5.45877e-22)
(0.2425072 0.1216365 -1.386134e-21)
(0.2255098 0.002872436 0)
(0.227134 0.008922424 2.293635e-25)
(0.2305442 0.01561535 -1.900535e-22)
(0.2367274 0.02605977 -3.594334e-22)
(0.2417258 0.04477403 -3.144203e-22)
(0.2441713 0.07375119 1.101675e-21)
(0.2439151 0.1108731 -3.756576e-22)
(0.2185638 0.004133919 2.068125e-23)
(0.2191267 0.01270818 0)
(0.2215454 0.02171767 0)
(0.2265034 0.03228637 -7.898244e-22)
(0.2321757 0.04779205 -1.293523e-21)
(0.2372314 0.07097585 8.595622e-22)
(0.2378037 0.1052054 1.834978e-21)
(0.2088404 0.00509448 1.962389e-23)
(0.2086034 0.01548691 1.957651e-25)
(0.2099999 0.02635761 3.436253e-25)
(0.2131412 0.03843634 3.325449e-24)
(0.2184939 0.05236858 -6.577866e-22)
(0.2232977 0.07238355 8.664904e-22)
(0.2253534 0.1002435 2.763456e-21)
(0.197062 0.005739005 0)
(0.1963119 0.01738891 -1.826101e-23)
(0.1967424 0.02963706 0)
(0.1987675 0.04241327 1.050848e-24)
(0.2014775 0.05752827 1.45416e-24)
(0.204923 0.07553013 1.266344e-22)
(0.2076664 0.09818583 7.848802e-22)
(0.1839573 0.006156737 0)
(0.1828186 0.01861871 1.671759e-23)
(0.1828218 0.03122836 -1.672163e-23)
(0.1831789 0.04513199 0)
(0.1839675 0.06042178 2.93572e-24)
(0.1853989 0.07741237 -8.761323e-24)
(0.1858808 0.09809048 -1.958416e-22)
(0.1700981 0.006373228 0)
(0.1689804 0.01902328 4.60161e-23)
(0.1681945 0.03219585 2.199148e-26)
(0.1675073 0.04614626 3.212486e-23)
(0.1669919 0.06093469 2.992965e-24)
(0.1659091 0.0777779 -1.448194e-23)
(0.1635879 0.09752931 1.75681e-23)
(0.1561377 0.006375868 -1.412167e-23)
(0.1548817 0.0191739 1.413818e-23)
(0.153665 0.03217038 -5.006756e-27)
(0.1523232 0.04569593 2.619165e-23)
(0.1504634 0.06007124 0)
(0.1477797 0.07558077 0)
(0.1442272 0.09309336 1.816869e-23)
(0.1422899 0.006271156 -1.267033e-23)
(0.1409833 0.0188639 1.261425e-23)
(0.1394633 0.03156714 -1.22452e-23)
(0.1375822 0.04448009 -1.195037e-23)
(0.134764 0.05826846 0)
(0.1307726 0.07315825 0)
(0.1264341 0.08806606 1.356523e-23)
(0.1288577 0.006042444 1.135795e-23)
(0.1275264 0.01818733 1.156313e-23)
(0.1258541 0.0302479 3.663638e-25)
(0.1234141 0.04265687 -9.993896e-24)
(0.1199342 0.05553523 -3.830755e-24)
(0.1157009 0.06849889 1.365161e-23)
(0.1095941 0.08263468 -6.518435e-24)
(0.1160844 0.005710977 1.011137e-23)
(0.1147992 0.01717175 1.05795e-25)
(0.1129255 0.02862416 -3.491223e-25)
(0.1101913 0.04020116 -4.936695e-25)
(0.1064132 0.05209651 0)
(0.1016752 0.06392766 9.289327e-24)
(0.09519785 0.07627723 -7.264212e-24)
(0.1041016 0.005354465 0)
(0.1028639 0.01603412 1.934408e-25)
(0.1008713 0.02674851 3.260332e-25)
(0.09783961 0.03763331 -1.904932e-23)
(0.09424586 0.04800697 -4.364226e-24)
(0.08900193 0.0589551 -1.225347e-23)
(0.08275753 0.0695646 -4.403836e-24)
(0.09302389 0.004935374 2.916272e-26)
(0.09180084 0.01481163 8.975852e-26)
(0.0897943 0.02460702 0)
(0.0869192 0.03440573 2.353688e-26)
(0.08291573 0.04417689 -6.426412e-24)
(0.07799229 0.05370587 -5.828721e-24)
(0.07200602 0.06289114 1.502586e-24)
(0.08285496 0.004525284 -6.803634e-24)
(0.08166534 0.01359376 6.830672e-24)
(0.07961875 0.0226526 -1.133862e-23)
(0.07699273 0.03131134 1.358183e-23)
(0.07303101 0.04012353 -5.029121e-24)
(0.06837969 0.0484969 0)
(0.06272924 0.05647155 -1.330098e-24)
(0.07358257 0.004123732 -5.950184e-24)
(0.07239074 0.01242573 5.672817e-24)
(0.0706185 0.02042382 -5.417994e-24)
(0.06787164 0.0284627 0)
(0.06430252 0.03619582 4.732489e-24)
(0.05996129 0.04355586 0)
(0.0547317 0.05049477 -3.636945e-24)
(0.06520507 0.003713132 0)
(0.06417187 0.01116271 0)
(0.06238939 0.01850607 9.465103e-24)
(0.05986088 0.02563591 0)
(0.05659698 0.03247259 8.0893e-24)
(0.05258181 0.03896908 3.590622e-24)
(0.04775769 0.04508513 -3.046102e-24)
(0.05765384 0.003372329 4.425359e-24)
(0.05676762 0.01002017 0)
(0.05509259 0.01661134 3.975335e-24)
(0.0527796 0.02295445 -3.93077e-24)
(0.04979137 0.02900941 3.44946e-24)
(0.04612086 0.0347116 6.081074e-24)
(0.04171697 0.03998138 2.553075e-24)
(0.05095052 0.003008444 3.800619e-24)
(0.05009034 0.009004707 3.658194e-24)
(0.04860097 0.01485556 0)
(0.04650273 0.02048671 -3.476459e-24)
(0.04379569 0.02584096 -2.897303e-25)
(0.0404913 0.03083923 5.492187e-24)
(0.03656136 0.03538118 1.170365e-24)
(0.04495461 0.002689463 3.26826e-24)
(0.04417346 0.008035824 3.15495e-24)
(0.04283805 0.01323912 -2.992017e-24)
(0.04094308 0.01824211 0)
(0.0385046 0.02299179 0)
(0.03553 0.02744931 2.170447e-24)
(0.03193973 0.03163978 -4.415048e-24)
(0.03961729 0.002393791 2.793969e-24)
(0.03891883 0.007151246 2.697341e-24)
(0.03772425 0.01177129 -2.549858e-24)
(0.03602137 0.01620735 0)
(0.03382991 0.02040617 -2.201961e-25)
(0.03115217 0.0243158 -2.562193e-28)
(0.02792622 0.02791188 2.957662e-25)
(0.03487753 0.002125814 0)
(0.03426081 0.006348726 2.296224e-24)
(0.03319446 0.01044576 -2.169797e-24)
(0.03167119 0.01437379 0)
(0.02971107 0.018083 1.976259e-24)
(0.02731953 0.02152778 4.514098e-25)
(0.02445107 0.02468162 2.558322e-25)
(0.03067792 0.00188435 -2.023735e-24)
(0.03013626 0.005626731 1.478471e-26)
(0.02918762 0.009255161 -1.813067e-24)
(0.02783067 0.01272901 6.630377e-26)
(0.02608443 0.01600147 8.082397e-26)
(0.02394703 0.01903697 1.271606e-24)
(0.0214061 0.02179587 0)
(0.02696281 0.001667946 -3.427017e-24)
(0.02648838 0.004980158 0)
(0.02564667 0.008190681 0)
(0.02444035 0.0112636 -1.478212e-24)
(0.02288137 0.01416525 -2.579972e-24)
(0.02092969 0.01689253 1.048556e-24)
(0.01872891 0.01922151 0)
(0.02368047 0.001474644 -1.445956e-24)
(0.0232656 0.004402668 1.103162e-26)
(0.02252031 0.007239806 1.810485e-26)
(0.02144973 0.009951751 5.052381e-26)
(0.02006343 0.01250085 -9.822082e-25)
(0.0183416 0.01486863 0)
(0.01633348 0.01700165 6.618876e-25)
(0.02078344 0.001302494 1.586713e-27)
(0.02042125 0.003888451 1.1838e-24)
(0.01976287 0.006393585 1.111056e-24)
(0.01881563 0.008786656 1.988413e-24)
(0.01758937 0.01103518 0)
(0.01607335 0.01312493 6.899496e-25)
(0.01428139 0.01500566 -1.457168e-27)
(0.01822859 0.00114953 1.018123e-24)
(0.01791275 0.003431757 1.962052e-24)
(0.01733234 0.005642237 1.842461e-24)
(0.01649568 0.007752371 8.624321e-25)
(0.01540724 0.009736692 4.498745e-26)
(0.01407172 0.01157496 5.603729e-25)
(0.01248842 0.01323099 -4.810362e-25)
(0.01597691 0.001013989 8.512659e-25)
(0.01570156 0.003027144 1.633402e-24)
(0.01518999 0.004977982 7.605097e-25)
(0.01444822 0.006844517 0)
(0.01345926 0.00861943 2.977011e-25)
(0.0123077 0.0101944 4.388437e-25)
(0.01091417 0.01165938 1.000937e-25)
(0.01399356 0.0008937942 7.096475e-25)
(0.0137535 0.002668211 6.758337e-25)
(0.01330268 0.004387188 -2.876135e-26)
(0.01264699 0.006027881 -2.609112e-26)
(0.01178067 0.007577363 0)
(0.01072936 0.009003095 3.721254e-25)
(0.009529934 0.01027194 -4.213683e-26)
(0.01224753 0.0007874761 5.887525e-25)
(0.01203841 0.002350692 5.602034e-25)
(0.01164196 0.003865072 -1.615056e-26)
(0.01106486 0.005310239 -1.097022e-26)
(0.01030457 0.006675971 0)
(0.009368476 0.007931532 2.634234e-25)
(0.008317203 0.009042218 -7.03146e-26)
(0.01071104 0.0006935292 -6.950672e-28)
(0.01052902 0.00207022 9.278851e-25)
(0.01018072 0.00340392 -6.745044e-27)
(0.0096728 0.004676604 -9.154397e-27)
(0.009004226 0.005878703 0)
(0.008178853 0.00698184 0)
(0.007253822 0.007956067 0)
(0.009359263 0.0006107049 0)
(0.009200991 0.001822848 3.83722e-25)
(0.008895429 0.002996982 0)
(0.008447016 0.004118306 -2.931889e-25)
(0.00786111 0.005174538 1.85901e-26)
(0.007135735 0.006143938 2.151575e-26)
(0.006322239 0.006998501 -8.374873e-26)
(0.008169934 0.0005378628 3.32624e-25)
(0.008032294 0.001605657 0)
(0.007763313 0.002641739 -9.142257e-27)
(0.007358356 0.003639242 -1.667989e-25)
(0.006856905 0.004551694 3.205968e-25)
(0.006220712 0.005406158 0)
(0.005506511 0.006156154 -7.749574e-26)
(0.00712339 0.0004737229 2.756979e-25)
(0.007003714 0.001413942 0)
(0.006767875 0.002325152 -3.695132e-27)
(0.006416811 0.003199038 -4.975673e-27)
(0.005962094 0.004017069 3.254703e-25)
(0.005416968 0.004760082 -1.129515e-25)
(0.004792202 0.0054173 5.601232e-26)
(0.006202291 0.0004174823 0)
(0.006098483 0.001245963 2.170715e-25)
(0.005892708 0.002048901 -2.929603e-27)
(0.005587255 0.002819473 -1.686845e-25)
(0.005185967 0.003540402 1.331097e-25)
(0.004712137 0.004192719 -9.008003e-26)
(0.004166139 0.004770477 -1.510658e-28)
(0.005390952 0.0003682885 0)
(0.00530104 0.001099044 1.846615e-25)
(0.005121843 0.001807433 -1.677449e-25)
(0.004855682 0.00248719 -1.448492e-25)
(0.004505149 0.003122533 1.077496e-25)
(0.004092401 0.003697017 -8.040738e-27)
(0.003616359 0.004205826 -3.181181e-26)
(0.004675424 0.0003254016 0)
(0.004597675 0.000970987 0)
(0.004442004 0.001596906 -1.442746e-25)
(0.004210558 0.002197345 1.224403e-25)
(0.003905704 0.002758236 -7.358196e-29)
(0.003546765 0.003265133 0)
(0.003132605 0.003713951 0)
(0.004043163 0.0002882002 1.462191e-25)
(0.003976127 0.0008598297 -1.39865e-25)
(0.003841349 0.001414084 -6.266887e-26)
(0.003640868 0.001945597 1.106327e-25)
(0.003376835 0.002441782 4.816166e-29)
(0.003065679 0.0028899 -3.670828e-27)
(0.002706378 0.00328632 -6.192498e-31)
(0.003483025 0.0002561685 -9.092142e-30)
(0.003425339 0.0007639358 -1.270749e-25)
(0.003309254 0.001256205 -5.769117e-26)
(0.003136627 0.00172815 9.091784e-28)
(0.002909199 0.002168308 1.648568e-25)
(0.002640898 0.00256533 9.554038e-28)
(0.002330753 0.002915754 0)
(0.002984788 0.0002286901 -1.239111e-25)
(0.002935676 0.0006817874 5.981212e-26)
(0.002835756 0.001121197 5.551216e-26)
(0.002688868 0.001541676 0)
(0.002494488 0.001933725 8.165578e-26)
(0.002265125 0.002286607 1.933678e-28)
(0.001999647 0.002596954 -8.438595e-29)
(0.002538533 0.0002058538 0)
(0.002498291 0.0006129607 5.844042e-26)
(0.002409908 0.00100966 5.505627e-26)
(0.002289664 0.001383227 8.35088e-28)
(0.002125181 0.001734837 4.232677e-26)
(0.001931588 0.002050223 -4.582385e-28)
(0.001704712 0.002325686 0)
(0.002141337 0.0001879745 0)
(0.002100546 0.0005554247 -7.59535e-29)
(0.002030852 0.0009119389 1.458932e-28)
(0.001927173 0.001254334 5.140984e-26)
(0.001793805 0.001569852 -6.754901e-28)
(0.001631731 0.001852094 8.317657e-27)
(0.001454238 0.002110928 2.447441e-26)
(0.001775949 0.0001648919 3.157037e-29)
(0.001745563 0.0005037112 6.135511e-26)
(0.001682284 0.0008373022 1.169065e-25)
(0.001601033 0.001147909 1.104831e-25)
(0.001492796 0.001433535 -4.020218e-26)
(0.001372303 0.001703146 1.204244e-26)
(0.001227893 0.001935843 1.164561e-27)
(0.001436453 0.0001577265 -6.551156e-26)
(0.001414947 0.0004635639 1.29162e-25)
(0.001364052 0.0007714332 1.238896e-25)
(0.001303168 0.001065452 5.887078e-26)
(0.001227822 0.001339308 -1.71487e-27)
(0.00113381 0.001585665 0)
(0.001023153 0.001798931 -7.068408e-28)
(0.001121584 0.0001441397 -7.131276e-26)
(0.00109834 0.0004345574 6.912167e-26)
(0.001068395 0.0007281467 -8.138978e-27)
(0.001031179 0.001015218 -2.136434e-26)
(0.0009791891 0.001267319 -1.472089e-26)
(0.0009128262 0.001499463 0)
(0.0008348452 0.001698781 -1.21099e-31)
(0.0007894499 0.0001349985 -8.830935e-29)
(0.0007884252 0.0004100547 9.371608e-28)
(0.0007849353 0.00070959 0)
(0.0007734971 0.0009830088 0)
(0.0007443096 0.001225066 -1.421455e-26)
(0.0007046872 0.001444733 5.112589e-28)
(0.0006583628 0.001634156 2.4576e-26)
(0.0006038926 0.0001594581 -1.154203e-26)
(0.0005043034 0.0004361404 1.177816e-27)
(0.000509133 0.0007220165 2.337653e-26)
(0.0005283488 0.0009818524 0)
(0.0005189721 0.001205061 0)
(0.0005052963 0.001419843 5.706526e-28)
(0.0004895853 0.001603817 0)
(0.0003405548 0.001751067 3.22811e-28)
(0.0003590442 0.001860443 3.603943e-26)
(0.0003766248 0.001932165 1.108249e-26)
(0.0004041733 0.001963459 2.298826e-31)
(0.0004096227 0.001957498 1.548052e-26)
(0.000399606 0.001934516 0)
(0.0002725244 0.001547588 2.034461e-26)
(0.0002071154 0.001783421 -2.643023e-26)
(0.0002632605 0.001894012 -3.521777e-26)
(0.0003245293 0.001957841 0)
(0.0003902037 0.00199447 1.276391e-26)
(0.0004201238 0.001967221 2.984284e-27)
(0.0004401827 0.001887085 -2.011535e-28)