/*--------------------------------*- C++ -*----------------------------------*\
| =========                 |                                                 |
| \\      /  F ield         | OpenFOAM: The Open Source CFD Toolbox           |
|  \\    /   O peration     | Version:  2206                                  |
|   \\  /    A nd           | Website:  www.openfoam.com                      |
|    \\/     M anipulation  |                                                 |
\*---------------------------------------------------------------------------*/
FoamFile
{
    version     2.0;
    format      ascii;
    arch        "LSB;label=32;scalar=64";
    class       volScalarField;
    location    "1.8";
    object      ddt0(omega.b);
}
// * * * * * * * * * * * * * * * * * * * * * * * * * * * * * * * * * * * * * //

dimensions      [0 0 -2 0 0 0 0];

internalField   nonuniform List<scalar> 
13078
(
-5.516566e-08
-0.1414759
-0.1881018
-0.1896996
-0.1902253
-0.1907625
-0.1913751
-1.266553e-08
-0.1413067
-0.1883918
-0.1897261
-0.1902171
-0.1907538
-0.1913638
-6.05889e-09
-0.1470976
-0.1884928
-0.1897255
-0.1902122
-0.1907466
-0.1913539
-4.033524e-09
-0.1491906
-0.188543
-0.1897263
-0.1902089
-0.1907402
-0.1913446
-4.276003e-09
-0.1499713
-0.1885724
-0.189733
-0.190206
-0.190734
-0.1913355
-5.43847e-09
-0.1504174
-0.1885901
-0.1897382
-0.190209
-0.190728
-0.1913263
-7.017964e-09
-0.1506942
-0.1885907
-0.1897388
-0.1902111
-0.1907288
-0.1913175
-8.583406e-09
-0.1509032
-0.188585
-0.189738
-0.1902119
-0.1907295
-0.1913169
-1.014551e-08
-0.1511013
-0.1885901
-0.1897377
-0.190212
-0.1907294
-0.1913164
-1.140351e-08
-0.1512843
-0.1885937
-0.1897369
-0.1902113
-0.1907287
-0.1913155
-1.241391e-08
-0.1514687
-0.1885968
-0.1897357
-0.1902102
-0.1907275
-0.191314
-1.302503e-08
-0.1516653
-0.1885998
-0.1897343
-0.1902088
-0.190726
-0.1913123
-1.302928e-08
-0.1518824
-0.1886032
-0.1897326
-0.1902072
-0.1907243
-0.1913102
-1.228383e-08
-0.1521268
-0.188607
-0.1897308
-0.1902052
-0.1907222
-0.1913078
-1.059519e-08
-0.1524057
-0.1886107
-0.1897265
-0.1901996
-0.1907197
-0.1913053
-7.68585e-09
-0.1527251
-0.1886151
-0.1897212
-0.1901946
-0.1907171
-0.1913025
-3.188942e-09
-0.153095
-0.1886214
-0.1897189
-0.1901921
-0.1907145
-0.1912995
3.40615e-09
-0.1535233
-0.1886288
-0.1897166
-0.1901895
-0.1907117
-0.1912962
1.277856e-08
-0.1540194
-0.1886376
-0.1897143
-0.1901866
-0.1907083
-0.1912927
2.583742e-08
-0.1545954
-0.1886481
-0.1897115
-0.19018
-0.1906995
-0.1912884
4.376492e-08
-0.1552638
-0.1886604
-0.1897085
-0.1901717
-0.1906915
-0.1912839
6.816989e-08
-0.1560416
-0.1886752
-0.1897056
-0.1901677
-0.1906872
-0.1912793
1.011565e-07
-0.1569467
-0.1886925
-0.1897024
-0.1901638
-0.1906826
-0.1912738
1.455472e-07
-0.1579995
-0.188713
-0.1896991
-0.1901591
-0.1906727
-0.1912606
2.05067e-07
-0.1592236
-0.1887372
-0.1896955
-0.190154
-0.1906595
-0.1912481
2.846746e-07
-0.160646
-0.1887657
-0.1896916
-0.190149
-0.1906534
-0.1912409
3.908814e-07
-0.1622956
-0.1887991
-0.1896875
-0.1901435
-0.1906469
-0.1912342
5.316038e-07
-0.1641114
-0.1888377
-0.1896833
-0.1901376
-0.1906391
-0.1912185
7.1763e-07
-0.1663308
-0.1888841
-0.1896788
-0.1901314
-0.1906308
-0.1911956
9.517793e-07
-0.1673039
-0.1889275
-0.189674
-0.1901246
-0.1906227
-0.1911863
1.261522e-06
-0.1715643
-0.1889952
-0.1896684
-0.1901172
-0.1906134
-0.1911726
1.686946e-06
-0.1743647
-0.1890476
-0.1896598
-0.1901081
-0.1906033
-0.1911587
2.24778e-06
-0.1777436
-0.1891322
-0.1896636
-0.1900974
-0.1905933
-0.1911463
2.979493e-06
-0.1818655
-0.1892012
-0.1896674
-0.1900908
-0.1905866
-0.1911386
3.942559e-06
-0.186395
-0.1893201
-0.1896807
-0.1901426
-0.1905998
-0.1911495
5.215311e-06
-0.1911788
-0.1894861
-0.1897087
-0.1901999
-0.1906939
-0.1912017
6.896492e-06
-0.1962754
-0.1897294
-0.1898464
-0.1902766
-0.1907788
-0.1912447
9.099731e-06
-0.2017482
-0.1900387
-0.1900018
-0.1903898
-0.1908119
-0.1912262
1.192451e-05
-0.2069993
-0.1903726
-0.1901301
-0.1904241
-0.1907302
-0.1911143
1.545434e-05
-0.2082099
-0.1906323
-0.1901596
-0.1904249
-0.1906604
-0.1909591
1.980456e-05
-0.2195609
-0.1907913
-0.190115
-0.1903553
-0.1905537
-0.1905817
2.436134e-05
-0.2248999
-0.1909536
-0.1901457
-0.19025
-0.1904596
-0.19043
2.729417e-05
-0.2263944
-0.1907514
-0.1900757
-0.1902561
-0.1902003
-0.1898311
2.83444e-05
-0.2233136
-0.1906279
-0.1899629
-0.1898976
-0.1892265
-0.1894168
2.848322e-05
-0.2107421
-0.1904192
-0.189911
-0.1895915
-0.1887073
-0.1883948
2.873509e-05
-0.2061549
-0.1898735
-0.1892477
-0.18878
-0.1883625
-0.1877792
2.907521e-05
-0.1959997
-0.189275
-0.1883588
-0.1876115
-0.1873888
-0.1879238
0.0009169396
-0.1873604
-0.188152
-0.187579
-0.1867265
-0.1864005
-0.1861037
0.01160605
-0.182629
-0.1870603
-0.1866841
-0.1860958
-0.1856635
-0.185157
0.03771591
-0.183243
-0.1863164
-0.1859994
-0.1851961
-0.18465
-0.184683
0.0826085
-0.1781072
-0.1856591
-0.1854487
-0.1845846
-0.1838483
-0.1834721
0.1444545
-0.1891146
-0.18526
-0.1849068
-0.1839063
-0.1831056
-0.1821079
0.2001131
-0.1956418
-0.1849397
-0.1847559
-0.1839177
-0.1832228
-0.1818824
0.2399238
-0.2042309
-0.1846522
-0.184263
-0.183454
-0.1829242
-0.1824293
0.2690219
-0.2060301
-0.1842719
-0.1838929
-0.1831271
-0.1825376
-0.1820599
0.2942258
-0.1940669
-0.1836467
-0.183609
-0.1828708
-0.1822355
-0.1817068
0.2940679
-0.1830813
-0.1832591
-0.1835427
-0.182772
-0.181982
-0.181243
0.2688193
-0.1759025
-0.1833133
-0.1838826
-0.1831743
-0.182461
-0.1816325
0.2397135
-0.1623012
-0.1833368
-0.1842656
-0.1835518
-0.1828673
-0.1823099
0.1997683
-0.1503884
-0.1834703
-0.1847083
-0.1839734
-0.1832429
-0.1826783
0.1440368
-0.1484011
-0.1841009
-0.184929
-0.1840953
-0.1832354
-0.182875
0.0821978
-0.1467588
-0.1848432
-0.1855609
-0.1848992
-0.1842851
-0.1840471
0.03749233
-0.161587
-0.185751
-0.1860554
-0.1853889
-0.185012
-0.1846869
0.01147369
-0.1676761
-0.1867496
-0.186705
-0.1862316
-0.1858811
-0.1850773
0.0009155369
-0.1777965
-0.1879663
-0.1875092
-0.1865691
-0.1860522
-0.1860212
4.198743e-05
-0.191234
-0.189063
-0.1881091
-0.187281
-0.1871294
-0.1867366
4.108279e-05
-0.2042576
-0.1896089
-0.1888197
-0.1883578
-0.1879552
-0.1874358
3.918757e-05
-0.2085073
-0.1901171
-0.1893915
-0.1890106
-0.1882202
-0.1881699
3.665766e-05
-0.2202176
-0.1903327
-0.1895282
-0.189415
-0.1888613
-0.1890641
3.30367e-05
-0.2221594
-0.1905155
-0.1896525
-0.1897795
-0.1897142
-0.1895342
2.852693e-05
-0.2196888
-0.1906562
-0.189809
-0.1899244
-0.190101
-0.1900268
2.375882e-05
-0.2144006
-0.1905104
-0.1899272
-0.1901275
-0.1903435
-0.1903691
1.928179e-05
-0.2054976
-0.1903567
-0.1900008
-0.1902685
-0.1905491
-0.1908695
1.547073e-05
-0.2041038
-0.1901059
-0.1899393
-0.1902999
-0.1906673
-0.1910847
1.227691e-05
-0.20003
-0.1898385
-0.1898213
-0.1902303
-0.1907013
-0.1911859
9.672978e-06
-0.1951888
-0.189598
-0.1896999
-0.1901521
-0.1906629
-0.1911572
7.596075e-06
-0.1906299
-0.1894384
-0.1896312
-0.1901132
-0.1905845
-0.1911155
5.957089e-06
-0.1853728
-0.189311
-0.1896469
-0.190094
-0.1905571
-0.1911094
4.67112e-06
-0.1817374
-0.1892092
-0.1896529
-0.1900769
-0.1905704
-0.1911223
3.658624e-06
-0.1777455
-0.1891411
-0.189656
-0.1900908
-0.1905858
-0.1911392
2.86422e-06
-0.1745009
-0.1890555
-0.1896563
-0.1901038
-0.1905987
-0.1911545
2.242171e-06
-0.171767
-0.189007
-0.1896657
-0.1901139
-0.19061
-0.1911695
1.759854e-06
-0.1674808
-0.1889389
-0.1896722
-0.1901223
-0.1906203
-0.1911838
1.385809e-06
-0.1666125
-0.1888957
-0.1896776
-0.1901298
-0.1906291
-0.1911939
1.086233e-06
-0.1644124
-0.1888489
-0.1896825
-0.1901366
-0.1906379
-0.1912169
8.513324e-07
-0.1626101
-0.1888098
-0.1896872
-0.1901428
-0.190646
-0.1912329
6.671888e-07
-0.1609598
-0.1887757
-0.1896914
-0.1901485
-0.1906527
-0.19124
5.2316e-07
-0.1595291
-0.1887466
-0.1896954
-0.1901537
-0.1906591
-0.1912474
4.105409e-07
-0.1582912
-0.1887216
-0.189699
-0.1901588
-0.1906722
-0.1912599
3.223734e-07
-0.1572208
-0.1887003
-0.1897024
-0.1901636
-0.1906822
-0.1912733
2.533129e-07
-0.1562959
-0.1886822
-0.1897056
-0.1901676
-0.1906869
-0.1912788
1.993372e-07
-0.1554976
-0.1886668
-0.1897085
-0.1901715
-0.1906912
-0.1912834
1.571475e-07
-0.1548087
-0.1886537
-0.1897115
-0.1901798
-0.1906992
-0.191288
1.241651e-07
-0.154213
-0.1886427
-0.1897142
-0.1901864
-0.190708
-0.1912923
9.83898e-08
-0.1536985
-0.1886333
-0.1897165
-0.1901893
-0.1907114
-0.1912959
7.824776e-08
-0.1532536
-0.1886254
-0.1897187
-0.1901919
-0.1907142
-0.1912992
6.250584e-08
-0.1528691
-0.1886186
-0.189721
-0.1901944
-0.1907169
-0.1913023
5.022824e-08
-0.1525374
-0.188614
-0.1897263
-0.1901994
-0.1907195
-0.1913051
4.068478e-08
-0.1522486
-0.18861
-0.1897305
-0.1902049
-0.1907221
-0.1913078
3.328175e-08
-0.1519973
-0.1886059
-0.1897324
-0.1902071
-0.1907242
-0.1913102
2.749837e-08
-0.1517769
-0.1886025
-0.189734
-0.1902087
-0.1907261
-0.1913124
2.264716e-08
-0.1515815
-0.1885996
-0.1897355
-0.1902102
-0.1907278
-0.1913144
1.861503e-08
-0.1514044
-0.1885968
-0.1897369
-0.1902116
-0.1907292
-0.1913161
1.553014e-08
-0.1512375
-0.188594
-0.189738
-0.1902126
-0.1907303
-0.1913174
1.300437e-08
-0.1510693
-0.1885902
-0.1897389
-0.1902132
-0.1907309
-0.1913183
1.061492e-08
-0.1509077
-0.1885983
-0.1897408
-0.1902132
-0.1907309
-0.1913194
8.13379e-09
-0.1507145
-0.1886017
-0.1897419
-0.1902124
-0.190731
-0.1913289
4.890339e-09
-0.1504341
-0.1885909
-0.1897391
-0.1902109
-0.1907379
-0.1913386
7.755306e-10
-0.150013
-0.1885733
-0.1897349
-0.1902149
-0.1907446
-0.1913478
-3.417807e-09
-0.149227
-0.1885474
-0.1897348
-0.1902184
-0.1907509
-0.1913569
-1.075859e-08
-0.1475161
-0.188535
-0.1897349
-0.1902222
-0.1907574
-0.1913662
-1.457828e-08
-0.1441641
-0.1884756
-0.1897409
-0.1902279
-0.1907647
-0.1913761
-0.1920919
-0.1929928
-0.194198
-0.1953461
-0.1973868
-0.2005779
-0.2134041
-0.1920779
-0.1929741
-0.1941732
-0.1953155
-0.1973497
-0.200518
-0.2015539
-0.1920648
-0.1929563
-0.194149
-0.1957152
-0.1973137
-0.2004669
-0.2011147
-0.1920523
-0.1929388
-0.1941248
-0.1952566
-0.1972761
-0.2004157
-0.2009307
-0.1920404
-0.1929215
-0.194101
-0.1952259
-0.1972396
-0.2003643
-0.2007811
-0.1920285
-0.1929043
-0.1940773
-0.1951964
-0.1972031
-0.2003127
-0.2006292
-0.1920163
-0.1928869
-0.1940534
-0.1951674
-0.1971925
-0.2002606
-0.2005085
-0.1920047
-0.1928693
-0.1940293
-0.1951386
-0.1971819
-0.2002072
-0.2001871
-0.1920027
-0.1928526
-0.1940062
-0.1951089
-0.197152
-0.2001598
-0.2010444
-0.1920011
-0.1928487
-0.1939842
-0.1950789
-0.1971221
-0.200113
-0.2019526
-0.1919992
-0.1928456
-0.1939782
-0.1950495
-0.1970918
-0.2000657
-0.2027154
-0.1919969
-0.1928421
-0.1939733
-0.1950422
-0.197061
-0.200018
-0.2036179
-0.1919942
-0.1928382
-0.1939678
-0.1950354
-0.1970538
-0.199969
-0.2042644
-0.1919912
-0.192834
-0.193962
-0.1950281
-0.1970456
-0.1999544
-0.2049523
-0.191988
-0.1928294
-0.1939557
-0.1950201
-0.1970367
-0.1999395
-0.205251
-0.1919844
-0.1928244
-0.1939489
-0.1950116
-0.197027
-0.1999232
-0.205661
-0.1919807
-0.192819
-0.1939417
-0.1950025
-0.1970148
-0.1999054
-0.2055601
-0.1919766
-0.1928133
-0.1939339
-0.1949899
-0.1969224
-0.1998861
-0.2055635
-0.1919722
-0.1928075
-0.1939256
-0.1949795
-0.1969064
-0.1998656
-0.2055617
-0.1919674
-0.1928011
-0.1939167
-0.1949683
-0.1968914
-0.1998434
-0.2055528
-0.1919622
-0.1927942
-0.1939071
-0.1949563
-0.1968752
-0.1998195
-0.2055314
-0.1919566
-0.1927867
-0.1938964
-0.1949433
-0.196858
-0.1997931
-0.2055083
-0.1919504
-0.1927786
-0.1938849
-0.1949322
-0.196838
-0.1997645
-0.2054702
-0.191943
-0.1927697
-0.1938713
-0.1953087
-0.1967495
-0.1997264
-0.2054471
-0.191935
-0.19276
-0.1938586
-0.1948977
-0.1966944
-0.1996903
-0.2054377
-0.1919269
-0.1927494
-0.1938465
-0.1948783
-0.196668
-0.1996536
-0.2054342
-0.1919169
-0.1927376
-0.1938291
-0.1948595
-0.1966399
-0.1996109
-0.2054504
-0.1918944
-0.1927226
-0.1938199
-0.1948381
-0.1966051
-0.1994216
-0.2054677
-0.1918755
-0.1924894
-0.1934921
-0.1948179
-0.1965701
-0.1993346
-0.2054904
-0.191877
-0.1924827
-0.1934815
-0.1947888
-0.1965352
-0.1992805
-0.2055162
-0.1918339
-0.1924579
-0.1934611
-0.1947609
-0.196498
-0.1991324
-0.2055533
-0.1917971
-0.1924009
-0.1934368
-0.1947301
-0.1964585
-0.1989787
-0.2055747
-0.1917792
-0.1923744
-0.1933969
-0.1946947
-0.1964145
-0.1989165
-0.2057452
-0.1917616
-0.1923392
-0.1933364
-0.19465
-0.1963636
-0.1988552
-0.2053342
-0.1917541
-0.1923141
-0.1933095
-0.1945754
-0.1962904
-0.1989137
-0.205743
-0.1917732
-0.1922313
-0.1930279
-0.1943383
-0.1959714
-0.1987245
-0.2045857
-0.1917122
-0.1919858
-0.1924706
-0.193434
-0.1953555
-0.1985772
-0.2072137
-0.1914177
-0.1915042
-0.1917765
-0.1928223
-0.1947634
-0.1979981
-0.2056777
-0.190925
-0.1909152
-0.1911413
-0.1922333
-0.1938889
-0.1975779
-0.2035225
-0.1906576
-0.1903649
-0.1904295
-0.1911432
-0.1937036
-0.198422
-0.2041032
-0.1905304
-0.1896045
-0.1895624
-0.1908576
-0.1938232
-0.1977449
-0.2036771
-0.1901018
-0.1888629
-0.1892199
-0.1906886
-0.1932493
-0.1974597
-0.2024749
-0.1899192
-0.1886194
-0.188383
-0.1899636
-0.1935275
-0.1964153
-0.20343
-0.1895737
-0.1879691
-0.1879031
-0.1894946
-0.1918462
-0.1960355
-0.2053355
-0.1884539
-0.1873613
-0.1869539
-0.1887837
-0.1912947
-0.1953602
-0.2043675
-0.187867
-0.1868039
-0.1862788
-0.1873395
-0.1912661
-0.1943933
-0.2033325
-0.1872786
-0.1864356
-0.1859128
-0.1869396
-0.1901856
-0.1942988
-0.2022515
-0.1871265
-0.1871306
-0.1849556
-0.1863433
-0.1899287
-0.1934073
-0.2056158
-0.1860494
-0.1869751
-0.184585
-0.1866866
-0.1889786
-0.1944605
-0.2039919
-0.1844201
-0.1845933
-0.1838937
-0.1856712
-0.1885815
-0.1939306
-0.2021935
-0.183
-0.1836564
-0.1843717
-0.1845862
-0.1877534
-0.1933482
-0.198598
-0.1815728
-0.1818752
-0.1819217
-0.1834381
-0.1869202
-0.193045
-0.1983437
-0.1807566
-0.1804091
-0.1809576
-0.183283
-0.1859195
-0.1922014
-0.1993251
-0.1801054
-0.1796677
-0.1804003
-0.1826746
-0.1846959
-0.1898483
-0.19931
-0.179967
-0.1798724
-0.1800082
-0.182629
-0.1850582
-0.1883588
-0.1878959
-0.1799805
-0.1789792
-0.1797701
-0.1821878
-0.1854615
-0.1865156
-0.1798151
-0.178755
-0.1790403
-0.1816194
-0.1838724
-0.1862239
-0.1798821
-0.1788223
-0.1793895
-0.1820707
-0.1849362
-0.1883604
-0.1803696
-0.178998
-0.1801361
-0.1821347
-0.1868957
-0.1895987
-0.1979022
-0.1811678
-0.1807016
-0.1819917
-0.1829099
-0.1853771
-0.19104
-0.2010549
-0.1821391
-0.182238
-0.1830303
-0.1838635
-0.1866996
-0.1923693
-0.2035246
-0.1837407
-0.1824985
-0.1834294
-0.1838578
-0.1869755
-0.1935486
-0.2005821
-0.1840489
-0.1829712
-0.1833596
-0.1845448
-0.187963
-0.1945995
-0.2011994
-0.1841638
-0.1834107
-0.1838102
-0.1850004
-0.1887921
-0.1960967
-0.2044195
-0.1849022
-0.1842106
-0.1840775
-0.1859798
-0.18983
-0.1958873
-0.2106775
-0.1855806
-0.1847319
-0.1851318
-0.1862127
-0.1905114
-0.1953648
-0.2062515
-0.186723
-0.1856341
-0.1856491
-0.1876747
-0.1905389
-0.1953884
-0.2052494
-0.1872336
-0.1864291
-0.1866497
-0.1883002
-0.191589
-0.1954487
-0.2069737
-0.1879082
-0.1873727
-0.187653
-0.1896003
-0.1920285
-0.195507
-0.2041293
-0.1885292
-0.1880086
-0.1879883
-0.1900738
-0.1939222
-0.1960147
-0.2036859
-0.1892085
-0.1885919
-0.1888462
-0.190329
-0.1933794
-0.1973797
-0.2022827
-0.1902348
-0.1896037
-0.1895979
-0.1906698
-0.1950258
-0.1977919
-0.2034952
-0.1909237
-0.190402
-0.1904975
-0.1911934
-0.193799
-0.1991544
-0.204438
-0.1912039
-0.1912639
-0.191332
-0.1922979
-0.1942415
-0.1980403
-0.2032161
-0.19159
-0.1919963
-0.1919346
-0.1928856
-0.1951525
-0.198872
-0.2025593
-0.1917081
-0.1922872
-0.1926632
-0.1942336
-0.1956794
-0.1991866
-0.204172
-0.1917113
-0.1923424
-0.19311
-0.1942549
-0.1961397
-0.1989855
-0.2056629
-0.191722
-0.1923672
-0.1931684
-0.1945353
-0.1962418
-0.1987552
-0.2040613
-0.1917495
-0.1923692
-0.193323
-0.1946188
-0.1963125
-0.1987491
-0.2044535
-0.1917736
-0.1924123
-0.1933756
-0.1946665
-0.1963713
-0.1988457
-0.2055341
-0.1917934
-0.1924404
-0.1934108
-0.1947043
-0.1964206
-0.1989082
-0.2057381
-0.1918307
-0.1924416
-0.1934445
-0.1947379
-0.1964645
-0.1989911
-0.205625
-0.1918729
-0.1924925
-0.1934673
-0.1947681
-0.1965049
-0.1992542
-0.205566
-0.1918732
-0.1925296
-0.193488
-0.1947936
-0.196543
-0.1992894
-0.2054792
-0.1918927
-0.1927205
-0.1938156
-0.1948245
-0.1965787
-0.199345
-0.205404
-0.1919155
-0.1927356
-0.1938262
-0.1948514
-0.1966172
-0.1995214
-0.2053394
-0.1919258
-0.1927477
-0.1938425
-0.1948702
-0.1966482
-0.1996224
-0.2052838
-0.1919341
-0.1927585
-0.1938574
-0.1948877
-0.1966764
-0.1996624
-0.2052621
-0.1919422
-0.1927684
-0.1938711
-0.1949041
-0.1967038
-0.1996993
-0.2052172
-0.1919497
-0.1927774
-0.1938836
-0.1949194
-0.1968008
-0.1997393
-0.2052304
-0.1919559
-0.1927856
-0.1938951
-0.1949338
-0.1968452
-0.1997729
-0.2052217
-0.1919616
-0.1927933
-0.1939057
-0.1949471
-0.1968638
-0.1998014
-0.2052272
-0.1919668
-0.1928003
-0.1939155
-0.1949597
-0.1968811
-0.1998275
-0.2052286
-0.1919717
-0.1928067
-0.1939246
-0.1949713
-0.1968971
-0.1998515
-0.2052295
-0.1919762
-0.1928127
-0.1939331
-0.1949821
-0.1969118
-0.1998734
-0.205261
-0.1919803
-0.1928185
-0.193941
-0.1949941
-0.1969617
-0.1998938
-0.2052558
-0.1919842
-0.192824
-0.1939484
-0.1950048
-0.1970208
-0.1999127
-0.2052118
-0.1919878
-0.1928291
-0.1939554
-0.1950138
-0.1970311
-0.1999304
-0.2050533
-0.1919912
-0.1928339
-0.1939618
-0.1950222
-0.1970407
-0.1999463
-0.2049129
-0.1919943
-0.1928383
-0.1939679
-0.1950299
-0.1970495
-0.1999618
-0.2046327
-0.1919971
-0.1928423
-0.1939734
-0.1950372
-0.1970577
-0.1999939
-0.204198
-0.1919996
-0.192846
-0.1939786
-0.1950439
-0.1970769
-0.2000421
-0.2036606
-0.1920018
-0.1928493
-0.1939848
-0.1950624
-0.1971073
-0.2000899
-0.2029527
-0.1920037
-0.1928535
-0.194007
-0.1950926
-0.1971377
-0.2001372
-0.202203
-0.192006
-0.1928705
-0.1940303
-0.1951227
-0.1971676
-0.2001842
-0.201548
-0.1920181
-0.1928884
-0.1940546
-0.1951526
-0.1971962
-0.2002329
-0.2005235
-0.1920306
-0.192906
-0.1940787
-0.1951808
-0.1971863
-0.2002865
-0.2006274
-0.1920428
-0.1929234
-0.1941026
-0.1952107
-0.1972222
-0.2003393
-0.2007461
-0.1920547
-0.1929406
-0.1941263
-0.1952404
-0.1972588
-0.2003909
-0.2008738
-0.1920669
-0.1929578
-0.1941501
-0.1952703
-0.1972953
-0.2004421
-0.2010325
-0.1920795
-0.1929752
-0.1941741
-0.1953002
-0.1973318
-0.2004929
-0.2012496
-0.1920924
-0.1929931
-0.1941982
-0.1953304
-0.1973683
-0.2005435
-0.206555
-1.263636
-1.307334
-1.364856
-1.366773
-1.366779
-1.366779
-1.366779
-1.366779
-1.366779
-1.366779
-1.366779
-1.366779
-1.366779
-1.366779
-1.366779
-1.366779
-1.366779
-1.366779
-1.44439
-1.376398
-1.366771
-1.366776
-1.366775
-1.366775
-1.366775
-1.366775
-1.366775
-1.366775
-1.366775
-1.366775
-1.366775
-1.366775
-1.366775
-1.366775
-1.366775
-1.366775
-1.454425
-1.360816
-1.366766
-1.366776
-1.366776
-1.366776
-1.366776
-1.366776
-1.366776
-1.366776
-1.366776
-1.366776
-1.366776
-1.366776
-1.366776
-1.366776
-1.366776
-1.366776
-1.463434
-1.360712
-1.366767
-1.366776
-1.366776
-1.366776
-1.366776
-1.366776
-1.366776
-1.366776
-1.366776
-1.366776
-1.366776
-1.366776
-1.366776
-1.366776
-1.366776
-1.366776
-1.469797
-1.360219
-1.366766
-1.366776
-1.366776
-1.366776
-1.366776
-1.366776
-1.366776
-1.366776
-1.366776
-1.366776
-1.366776
-1.366776
-1.366776
-1.366776
-1.366776
-1.366776
-1.475725
-1.357917
-1.366764
-1.366776
-1.366776
-1.366776
-1.366776
-1.366776
-1.366776
-1.366776
-1.366776
-1.366776
-1.366776
-1.366776
-1.366776
-1.366776
-1.366776
-1.366776
-1.482339
-1.353945
-1.366762
-1.366776
-1.366775
-1.366776
-1.366776
-1.366776
-1.366776
-1.366776
-1.366776
-1.366776
-1.366776
-1.366776
-1.366776
-1.366776
-1.366776
-1.366776
-1.554206
-1.347181
-1.366759
-1.366776
-1.366775
-1.366776
-1.366776
-1.366776
-1.366776
-1.366776
-1.366776
-1.366776
-1.366776
-1.366776
-1.366776
-1.366776
-1.366776
-1.366776
-1.705437
-1.354127
-1.366759
-1.366776
-1.366776
-1.366776
-1.366776
-1.366776
-1.366776
-1.366776
-1.366776
-1.366776
-1.366776
-1.366776
-1.366776
-1.366776
-1.366776
-1.366776
-1.684874
-1.359255
-1.366761
-1.366776
-1.366776
-1.366776
-1.366776
-1.366776
-1.366776
-1.366776
-1.366776
-1.366776
-1.366776
-1.366776
-1.366776
-1.366776
-1.366776
-1.366776
-1.694109
-1.361812
-1.36676
-1.366776
-1.366776
-1.366776
-1.366776
-1.366776
-1.366776
-1.366776
-1.366776
-1.366776
-1.366776
-1.366776
-1.366776
-1.366776
-1.366776
-1.366776
-1.671651
-1.364075
-1.36676
-1.366776
-1.366776
-1.366776
-1.366776
-1.366776
-1.366776
-1.366776
-1.366776
-1.366776
-1.366776
-1.366776
-1.366776
-1.366776
-1.366776
-1.366776
-1.661092
-1.364172
-1.366761
-1.366776
-1.366775
-1.366776
-1.366776
-1.366776
-1.366776
-1.366776
-1.366776
-1.366776
-1.366776
-1.366776
-1.366776
-1.366776
-1.366776
-1.366776
-1.669702
-1.362626
-1.366755
-1.366776
-1.366775
-1.366776
-1.366776
-1.366776
-1.366776
-1.366776
-1.366776
-1.366776
-1.366776
-1.366776
-1.366776
-1.366776
-1.366776
-1.366776
-1.499318
-1.371158
-1.366717
-1.366776
-1.366775
-1.366776
-1.366776
-1.366776
-1.366776
-1.366776
-1.366776
-1.366776
-1.366776
-1.366776
-1.366776
-1.366776
-1.366776
-1.366776
-1.474099
-1.364585
-1.36469
-1.366765
-1.366775
-1.366775
-1.366776
-1.366776
-1.366776
-1.366776
-1.366776
-1.366776
-1.366776
-1.366776
-1.366776
-1.366776
-1.366776
-1.366776
-1.450345
-1.375195
-1.367573
-1.366087
-1.366773
-1.366776
-1.366776
-1.366776
-1.366776
-1.366776
-1.366776
-1.366776
-1.366776
-1.366776
-1.366776
-1.366776
-1.366776
-1.366776
-1.416028
-1.367678
-1.367277
-1.366928
-1.366585
-1.366775
-1.366776
-1.366776
-1.366776
-1.366776
-1.366776
-1.366776
-1.366776
-1.366776
-1.366776
-1.366776
-1.366776
-1.366776
-1.383617
-1.367745
-1.366768
-1.366946
-1.366817
-1.366754
-1.366776
-1.366776
-1.366776
-1.366776
-1.366776
-1.366776
-1.366776
-1.366776
-1.366776
-1.366776
-1.366776
-1.366776
-1.351909
-1.36728
-1.366757
-1.36678
-1.366813
-1.36677
-1.366774
-1.366776
-1.366776
-1.366776
-1.366776
-1.366776
-1.366776
-1.366776
-1.366776
-1.366776
-1.366776
-1.366776
-1.318795
-1.368024
-1.366758
-1.366776
-1.366776
-1.366783
-1.366774
-1.366776
-1.366776
-1.366776
-1.366776
-1.366776
-1.366776
-1.366776
-1.366776
-1.366776
-1.366776
-1.366776
-1.291607
-1.367308
-1.366758
-1.366776
-1.366776
-1.366776
-1.366776
-1.366776
-1.366776
-1.366776
-1.366776
-1.366776
-1.366776
-1.366776
-1.366776
-1.366776
-1.366776
-1.366776
-1.266478
-1.368641
-1.366759
-1.366776
-1.366775
-1.366776
-1.366776
-1.366776
-1.366776
-1.366776
-1.366776
-1.366776
-1.366776
-1.366776
-1.366776
-1.366776
-1.366776
-1.366776
-1.241495
-1.368929
-1.36676
-1.366776
-1.366774
-1.366776
-1.366776
-1.366776
-1.366776
-1.366776
-1.366776
-1.366776
-1.366776
-1.366776
-1.366776
-1.366776
-1.366776
-1.366776
-1.218114
-1.36831
-1.36676
-1.366776
-1.366773
-1.366776
-1.366776
-1.366776
-1.366776
-1.366776
-1.366776
-1.366776
-1.366776
-1.366776
-1.366775
-1.366776
-1.366776
-1.366776
-1.195429
-1.369521
-1.366761
-1.366775
-1.36677
-1.366776
-1.366776
-1.366776
-1.366776
-1.366776
-1.366776
-1.366776
-1.366776
-1.366775
-1.366771
-1.366776
-1.366776
-1.366776
-1.170953
-1.369734
-1.366762
-1.366775
-1.366766
-1.366776
-1.366776
-1.366776
-1.366775
-1.366776
-1.366776
-1.366776
-1.366776
-1.366775
-1.366777
-1.366776
-1.366776
-1.366776
-1.147862
-1.370007
-1.366762
-1.366774
-1.366758
-1.366776
-1.366775
-1.366776
-1.366774
-1.366776
-1.366776
-1.366776
-1.366776
-1.366776
-1.366776
-1.366776
-1.366776
-1.366776
-1.12508
-1.370758
-1.366761
-1.366762
-1.366725
-1.366775
-1.366774
-1.366775
-1.366774
-1.366776
-1.366776
-1.366776
-1.366776
-1.366776
-1.366776
-1.366776
-1.366776
-1.366776
-1.102738
-1.371493
-1.366741
-1.365747
-1.365728
-1.366772
-1.366771
-1.36677
-1.366769
-1.366776
-1.366776
-1.366776
-1.366776
-1.366776
-1.366776
-1.366776
-1.366776
-1.366774
-1.079459
-1.37072
-1.366546
-1.34477
-1.349035
-1.36665
-1.366763
-1.366344
-1.366662
-1.366774
-1.366776
-1.366776
-1.366776
-1.366776
-1.366776
-1.366776
-1.366776
-1.366773
-1.059941
-1.365645
-1.366627
-1.374441
-1.374228
-1.366856
-1.366752
-1.366063
-1.365868
-1.366782
-1.366776
-1.366776
-1.366775
-1.366775
-1.366776
-1.366776
-1.366776
-1.366774
-1.044289
-1.3373
-1.365507
-1.356769
-1.35125
-1.366627
-1.366728
-1.366806
-1.366887
-1.366777
-1.366776
-1.366776
-1.366773
-1.366769
-1.366776
-1.366776
-1.366773
-1.366774
-1.033514
-1.359382
-1.362524
-1.308255
-1.31857
-1.360945
-1.366704
-1.366687
-1.366721
-1.366748
-1.366776
-1.366776
-1.366774
-1.366777
-1.366776
-1.366776
-1.366766
-1.36678
-0.9903576
-1.398479
-1.354066
-1.376389
-1.341357
-1.337007
-1.366562
-1.366329
-1.366516
-1.366248
-1.366775
-1.366776
-1.366765
-1.366777
-1.366776
-1.366775
-1.36673
-1.366777
-0.9783298
-1.253629
-1.352149
-1.36834
-1.393126
-1.381031
-1.365815
-1.366287
-1.364994
-1.367004
-1.366779
-1.366776
-1.366758
-1.366778
-1.366776
-1.366768
-1.366739
-1.366776
-1.014523
-1.235793
-1.354186
-1.328388
-1.357068
-1.364813
-1.365176
-1.366027
-1.366637
-1.366129
-1.366424
-1.366695
-1.366821
-1.366786
-1.366776
-1.366742
-1.366808
-1.366776
-0.7504357
-1.055806
-1.225565
-1.271638
-1.355114
-1.363418
-1.365352
-1.365684
-1.365552
-1.365607
-1.365202
-1.365114
-1.365838
-1.366461
-1.366803
-1.366768
-1.366784
-1.366776
-0.6921889
-1.083366
-1.340266
-1.387861
-1.366158
-1.36321
-1.366363
-1.367879
-1.367148
-1.366748
-1.366482
-1.365526
-1.36538
-1.364814
-1.365064
-1.366556
-1.366813
-1.36678
-1.329434
-2.135864
-1.362088
-1.3036
-1.367647
-1.363535
-1.367481
-1.368248
-1.368306
-1.367531
-1.367423
-1.367429
-1.366704
-1.366311
-1.36521
-1.364638
-1.365588
-1.366808
-1.192499
-1.578596
-1.176134
-1.360123
-1.363501
-1.364168
-1.368521
-1.368116
-1.369128
-1.368298
-1.368209
-1.370059
-1.367814
-1.367217
-1.367811
-1.366148
-1.365064
-1.364825
-0.6355675
-1.495803
-1.412798
-1.366759
-1.367334
-1.346336
-1.368349
-1.36858
-1.36989
-1.369106
-1.368937
-1.369909
-1.36894
-1.367789
-1.367837
-1.367509
-1.366827
-1.365212
-0.6161689
-1.455232
-1.294429
-1.364571
-1.357778
-1.392177
-1.3701
-1.368998
-1.370458
-1.369885
-1.368865
-1.36896
-1.368935
-1.371563
-1.368957
-1.368737
-1.367019
-1.368236
-0.8073748
-1.875363
-1.387669
-1.37088
-1.357089
-1.364819
-1.369357
-1.36936
-1.370736
-1.370395
-1.367833
-1.369961
-1.368435
-1.369908
-1.370247
-1.368212
-1.371289
-1.366838
-0.7563749
-2.015396
-1.328017
-1.193403
-1.322746
-1.370712
-1.368398
-1.369697
-1.370902
-1.367691
-1.36528
-1.36929
-1.372785
-1.370921
-1.369378
-1.373039
-1.36762
-1.370475
-0.6348038
-2.486444
-0.9732845
-1.383517
-1.392059
-1.357793
-1.369586
-1.369703
-1.37065
-1.362542
-1.36718
-1.365939
-1.369166
-1.370215
-1.374743
-1.367344
-1.372995
-1.369236
-0.3644309
-3.603133
-1.430266
-1.207815
-1.297784
-1.339548
-1.370027
-1.366755
-1.371386
-1.376837
-1.371619
-1.373319
-1.367411
-1.373134
-1.370863
-1.373016
-1.367998
-1.372261
-0.4252575
-3.543488
-1.312457
-1.160042
-1.367338
-1.365447
-1.368416
-1.366242
-1.367281
-1.347042
-1.36957
-1.369016
-1.368167
-1.375043
-1.369359
-1.371891
-1.374798
-1.369759
-0.1950797
-3.404309
-2.03589
-1.034364
-1.180646
-1.339053
-1.363885
-1.3507
-1.273069
-1.34182
-1.353546
-1.372394
-1.378967
-1.338153
-1.364412
-1.36935
-1.37518
-1.377213
-0.2815355
-3.28643
-3.679273
-1.397385
-1.244055
-1.248239
-1.219521
-1.363652
-1.299059
-1.355908
-1.367448
-1.371199
-1.367936
-1.372424
-0.2257989
-2.477657
-1.347617
-1.294155
-1.336232
-1.350851
-1.370264
-1.372955
-1.375496
-1.374581
-0.224879
-1.38289
-1.335458
-1.359531
-1.370263
-1.372375
-1.370748
-1.373173
-1.284718
-1.309448
-1.323169
-1.374599
-1.377138
-1.375188
-1.304695
-1.372769
-1.368436
-1.37103
-1.376418
-1.276715
-1.348893
-1.370147
-1.370046
-1.374026
-1.390095
-1.380583
-1.376151
-1.376556
-1.376771
-1.355265
-1.372476
-1.372975
-1.374994
-1.375367
-1.049859
-1.356556
-1.375979
-1.373825
-1.374311
-1.467844
-1.363128
-1.372277
-1.374861
-1.378283
-1.511351
-1.313992
-1.364716
-1.361246
-1.375074
-1.370521
-0.2639065
-1.253839
-1.366309
-1.365404
-1.376568
-1.376635
-1.375705
-0.2420339
-1.433927
-1.21475
-1.347879
-1.360299
-1.374485
-1.370373
-1.369217
-1.376301
-0.2800343
-2.36497
-4.036522
-1.141055
-1.217732
-1.421979
-1.308982
-1.345257
-1.36971
-1.367031
-1.376718
-1.369975
-0.2092027
-2.424032
-2.652814
-1.214179
-1.017135
-1.260297
-1.385324
-1.329095
-1.446466
-1.447228
-1.392187
-1.346535
-1.376622
-1.345196
-1.355171
-1.358779
-1.368285
-1.375315
-0.526911
-3.055326
-1.67779
-0.9043764
-1.297026
-1.324663
-1.368004
-1.375189
-1.380055
-1.358007
-1.365993
-1.371096
-1.357334
-1.368858
-1.374831
-1.367344
-1.376846
-1.368598
-0.5477314
-2.869017
-1.17531
-1.156055
-1.24006
-1.30776
-1.365054
-1.366175
-1.37101
-1.364964
-1.367616
-1.368107
-1.368115
-1.371422
-1.367261
-1.378428
-1.367867
-1.375057
-0.4779338
-2.676771
-1.315283
-1.0911
-1.316985
-1.325487
-1.36219
-1.366859
-1.367514
-1.365172
-1.369183
-1.370976
-1.369589
-1.361757
-1.372797
-1.367023
-1.37491
-1.365863
-0.7271925
-2.228331
-1.332962
-1.248667
-1.244359
-1.36641
-1.363509
-1.365908
-1.366826
-1.366235
-1.357142
-1.367231
-1.355691
-1.374825
-1.366588
-1.37379
-1.370451
-1.372322
-0.8399299
-2.173332
-1.421212
-1.395767
-1.342504
-1.362267
-1.363549
-1.365605
-1.366021
-1.370975
-1.351641
-1.37032
-1.369173
-1.369141
-1.370154
-1.371284
-1.367804
-1.369968
-0.6457502
-1.942649
-1.225357
-1.343653
-1.322785
-1.361178
-1.36407
-1.365423
-1.365851
-1.36906
-1.367556
-1.368307
-1.369213
-1.365257
-1.372834
-1.366039
-1.371403
-1.367352
-0.6858028
-2.152939
-1.18458
-1.333092
-1.368879
-1.323342
-1.363345
-1.365122
-1.365907
-1.368059
-1.363983
-1.366704
-1.368699
-1.367895
-1.368395
-1.369853
-1.368845
-1.369981
-0.4505961
-2.487228
-1.216713
-1.284836
-1.35051
-1.357011
-1.363992
-1.364983
-1.366047
-1.366582
-1.368391
-1.366091
-1.368036
-1.369739
-1.366382
-1.369968
-1.367396
-1.368323
-0.9199923
-1.454158
-1.363753
-1.354983
-1.354057
-1.353509
-1.362786
-1.364622
-1.366151
-1.366411
-1.368313
-1.367496
-1.367577
-1.367923
-1.367838
-1.367874
-1.368159
-1.366668
-1.414775
-1.517564
-1.360554
-1.342925
-1.355408
-1.358964
-1.363141
-1.362795
-1.366582
-1.366287
-1.367739
-1.3681
-1.367248
-1.367787
-1.368505
-1.366979
-1.366502
-1.366651
-0.597759
-1.567596
-1.227929
-1.334946
-1.360295
-1.363393
-1.364653
-1.36631
-1.367007