/*--------------------------------*- C++ -*----------------------------------*\
| =========                 |                                                 |
| \\      /  F ield         | OpenFOAM: The Open Source CFD Toolbox           |
|  \\    /   O peration     | Version:  2206                                  |
|   \\  /    A nd           | Website:  www.openfoam.com                      |
|    \\/     M anipulation  |                                                 |
\*---------------------------------------------------------------------------*/
FoamFile
{
    version     2.0;
    format      ascii;
    arch        "LSB;label=32;scalar=64";
    class       volVectorField;
    location    "1.8";
    object      ddt0(U.a);
}
// * * * * * * * * * * * * * * * * * * * * * * * * * * * * * * * * * * * * * //

dimensions      [0 1 -2 0 0 0 0];

internalField   nonuniform List<vector> 
13078
(
(2.43601e-05 -0.0001680158 3.256461e-27)
(2.639191e-06 -4.389079e-05 -2.269695e-30)
(6.843561e-07 -1.514533e-05 -4.101662e-29)
(4.580986e-07 -7.756444e-06 0)
(4.729267e-07 -6.672499e-06 -1.367175e-30)
(4.237533e-07 -6.481106e-06 -2.365097e-30)
(3.164719e-07 -6.503325e-06 -3.181173e-30)
(-4.669097e-05 -4.056776e-05 0)
(-2.130342e-05 -2.546531e-05 -1.143701e-30)
(-4.622931e-06 -1.026811e-05 0)
(-2.112086e-07 -6.762639e-06 0)
(7.731777e-07 -6.368488e-06 -3.853633e-31)
(1.007787e-06 -6.419638e-06 -1.974425e-31)
(9.099678e-07 -6.511237e-06 -4.051668e-31)
(-1.140249e-05 -5.385908e-06 4.199757e-29)
(-8.283085e-06 -7.099432e-06 -3.301172e-29)
(-2.630715e-06 -5.724132e-06 3.072186e-30)
(1.47167e-07 -5.692106e-06 6.666951e-31)
(1.358418e-06 -5.921944e-06 1.213626e-30)
(1.672987e-06 -6.272934e-06 0)
(1.531609e-06 -6.477399e-06 -1.529966e-35)
(-2.428598e-06 -9.22223e-07 1.987706e-29)
(-2.410024e-06 -2.294202e-06 -4.935701e-29)
(-6.413341e-07 -3.890332e-06 -4.98667e-29)
(1.169179e-06 -4.800717e-06 -2.556627e-29)
(2.156992e-06 -5.548909e-06 8.302261e-31)
(2.405767e-06 -6.154996e-06 0)
(2.184798e-06 -6.452083e-06 4.646179e-31)
(-7.915754e-07 -5.930094e-07 2.992049e-33)
(-6.490173e-07 -1.812882e-06 -2.355479e-29)
(7.407173e-07 -3.189386e-06 -4.976808e-29)
(2.16592e-06 -4.379204e-06 -5.192119e-29)
(2.980808e-06 -5.379669e-06 2.803618e-29)
(3.164934e-06 -6.125047e-06 -1.495641e-33)
(2.866699e-06 -6.458084e-06 -3.932224e-31)
(-3.201034e-07 -5.518641e-07 0)
(1.345999e-07 -1.733487e-06 -4.874938e-32)
(1.572941e-06 -3.061497e-06 7.882494e-32)
(2.986139e-06 -4.332511e-06 -2.593344e-29)
(3.797528e-06 -5.419587e-06 -1.76546e-31)
(3.951949e-06 -6.191611e-06 1.364131e-30)
(3.587861e-06 -6.507387e-06 4.974701e-31)
(-2.675391e-07 -6.03307e-07 0)
(4.299189e-07 -1.850914e-06 -2.153785e-29)
(2.105505e-06 -3.19977e-06 -2.105467e-29)
(3.70589e-06 -4.499863e-06 2.658745e-30)
(4.625212e-06 -5.608057e-06 -2.81582e-29)
(4.798394e-06 -6.355734e-06 -3.266716e-31)
(4.372641e-06 -6.605446e-06 0)
(-3.499502e-07 -6.82212e-07 2.93344e-29)
(5.318782e-07 -2.044441e-06 -1.944422e-29)
(2.524371e-06 -3.453295e-06 -2.133271e-29)
(4.41624e-06 -4.785976e-06 0)
(5.508962e-06 -5.899708e-06 -5.426145e-29)
(5.730316e-06 -6.606476e-06 -5.559811e-31)
(5.243558e-06 -6.765789e-06 -5.285482e-31)
(-4.810007e-07 -7.671722e-07 -1.566882e-33)
(5.697139e-07 -2.264636e-06 3.322909e-29)
(2.934806e-06 -3.764915e-06 1.830669e-29)
(5.174523e-06 -5.147646e-06 -6.624518e-31)
(6.481346e-06 -6.272089e-06 -1.037457e-28)
(6.766832e-06 -6.940411e-06 -8.264613e-31)
(6.218214e-06 -7.004567e-06 0)
(-6.379472e-07 -8.555069e-07 -1.803587e-29)
(5.869516e-07 -2.500386e-06 2.560634e-29)
(3.368193e-06 -4.112506e-06 1.537763e-29)
(6.003603e-06 -5.566575e-06 -3.885992e-29)
(7.557709e-06 -6.718599e-06 2.53652e-32)
(7.920279e-06 -7.359489e-06 0)
(7.304801e-06 -7.331524e-06 0)
(-8.183821e-07 -9.497475e-07 0)
(5.958565e-07 -2.75574e-06 0)
(3.838802e-06 -4.498909e-06 2.177453e-29)
(6.915597e-06 -6.045546e-06 -3.11109e-29)
(8.747038e-06 -7.243836e-06 -3.501306e-32)
(9.197854e-06 -7.870061e-06 0)
(8.511258e-06 -7.754587e-06 0)
(-1.025788e-06 -1.053363e-06 0)
(5.969605e-07 -3.038555e-06 -3.210891e-30)
(4.352117e-06 -4.933691e-06 1.022503e-29)
(7.918147e-06 -6.594455e-06 2.251527e-29)
(1.005698e-05 -7.857697e-06 -3.091302e-29)
(1.060685e-05 -8.481433e-06 0)
(9.84385e-06 -8.281283e-06 5.825553e-29)
(-1.26534e-06 -1.169389e-06 0)
(5.874186e-07 -3.356705e-06 1.322386e-29)
(4.911568e-06 -5.427454e-06 1.315851e-30)
(9.018016e-06 -7.224289e-06 8.197672e-30)
(1.149439e-05 -8.57023e-06 -2.192813e-29)
(1.215515e-05 -9.203346e-06 3.822219e-29)
(1.131068e-05 -8.919819e-06 -6.656347e-32)
(-1.542654e-06 -1.30052e-06 2.98016e-29)
(5.646669e-07 -3.717511e-06 0)
(5.523378e-06 -5.990946e-06 1.603312e-30)
(1.022362e-05 -7.945908e-06 2.188369e-30)
(1.306588e-05 -9.389643e-06 -1.663778e-29)
(1.385072e-05 -1.004385e-05 2.721972e-29)
(1.292158e-05 -9.677891e-06 -4.847247e-29)
(-1.863862e-06 -1.449134e-06 4.912013e-29)
(5.26498e-07 -4.128131e-06 0)
(6.197431e-06 -6.636523e-06 3.859446e-30)
(1.153885e-05 -8.766551e-06 -6.498527e-29)
(1.478511e-05 -1.032103e-05 -4.250375e-29)
(1.570844e-05 -1.101021e-05 0)
(1.469049e-05 -1.056389e-05 3.810287e-29)
(-2.237368e-06 -1.616918e-06 0)
(4.640717e-07 -4.593061e-06 8.258778e-29)
(6.933609e-06 -7.372575e-06 0)
(1.298864e-05 -9.712687e-06 -5.863113e-29)
(1.669327e-05 -1.13903e-05 -7.808721e-30)
(1.776164e-05 -1.212244e-05 -8.877788e-30)
(1.664059e-05 -1.159193e-05 1.493583e-29)
(-2.673836e-06 -1.80466e-06 0)
(3.617756e-07 -5.113412e-06 2.317884e-28)
(7.717078e-06 -8.197994e-06 2.739568e-30)
(1.459541e-05 -1.078689e-05 3.72018e-30)
(1.879939e-05 -1.261725e-05 0)
(2.002768e-05 -1.339882e-05 0)
(1.879001e-05 -1.27777e-05 0)
(-3.182645e-06 -2.013757e-06 1.322772e-28)
(2.12e-07 -5.692575e-06 1.563933e-28)
(8.548767e-06 -9.117269e-06 6.47613e-30)
(1.634607e-05 -1.198618e-05 4.401042e-30)
(2.110789e-05 -1.399766e-05 0)
(2.251222e-05 -1.484107e-05 6.283243e-29)
(2.114883e-05 -1.412982e-05 2.781541e-29)
(-3.773007e-06 -2.245825e-06 1.707744e-28)
(1.166721e-08 -6.335218e-06 2.030024e-28)
(9.444029e-06 -1.01391e-05 1.141642e-29)
(1.826942e-05 -1.332274e-05 1.035863e-29)
(2.364146e-05 -1.553668e-05 0)
(2.522011e-05 -1.644404e-05 8.138048e-29)
(2.372202e-05 -1.564852e-05 1.647612e-29)
(-4.455017e-06 -2.502155e-06 2.162171e-28)
(-2.423389e-07 -7.045071e-06 5.130257e-28)
(1.042098e-05 -1.127198e-05 2.332448e-28)
(2.040871e-05 -1.481258e-05 0)
(2.643974e-05 -1.723981e-05 -1.194256e-28)
(2.81929e-05 -1.820178e-05 -1.754474e-28)
(2.651823e-05 -1.731783e-05 -3.891161e-29)
(-5.240511e-06 -2.782874e-06 2.694795e-28)
(-5.58843e-07 -7.821229e-06 6.391659e-28)
(1.148155e-05 -1.251251e-05 5.819942e-28)
(2.277666e-05 -1.645241e-05 2.440575e-28)
(2.955232e-05 -1.913771e-05 -1.757549e-29)
(3.147378e-05 -2.010954e-05 1.588056e-28)
(2.955752e-05 -1.911098e-05 -7.987569e-29)
(-6.143256e-06 -3.086338e-06 0)
(-9.522849e-07 -8.655121e-06 3.91194e-28)
(1.260916e-05 -1.383563e-05 3.580325e-28)
(2.533216e-05 -1.818013e-05 6.466389e-28)
(3.292669e-05 -2.11119e-05 0)
(3.498557e-05 -2.207619e-05 2.10518e-28)
(3.276466e-05 -2.089378e-05 -5.56556e-31)
(-7.176969e-06 -3.410143e-06 -4.017786e-28)
(-1.431359e-06 -9.535674e-06 0)
(1.380854e-05 -1.52145e-05 0)
(2.808286e-05 -1.994267e-05 -1.853074e-29)
(3.653435e-05 -2.305921e-05 -3.672298e-28)
(3.865991e-05 -2.391431e-05 0)
(3.596865e-05 -2.23762e-05 1.966973e-28)
(-8.355841e-06 -3.750577e-06 -9.688049e-28)
(-2.002605e-06 -1.04475e-05 0)
(1.50902e-05 -1.661482e-05 0)
(3.104933e-05 -2.16777e-05 -4.656431e-28)
(4.038825e-05 -2.487918e-05 -8.199804e-28)
(4.247895e-05 -2.544158e-05 3.508725e-28)
(3.905437e-05 -2.32539e-05 0)
(-9.693513e-06 -4.103055e-06 -5.797703e-28)
(-2.670178e-06 -1.137202e-05 -5.701315e-30)
(1.646129e-05 -1.799339e-05 -6.593006e-28)
(3.422654e-05 -2.330133e-05 -2.52896e-29)
(4.444531e-05 -2.64435e-05 -3.219192e-29)
(4.638622e-05 -2.655022e-05 4.314957e-28)
(4.189071e-05 -2.335412e-05 0)
(-1.119886e-05 -4.463927e-06 0)
(-3.423016e-06 -1.229327e-05 8.298421e-28)
(1.795025e-05 -1.930886e-05 -7.770857e-28)
(3.761675e-05 -2.471898e-05 0)
(4.860498e-05 -2.75502e-05 5.51557e-28)
(5.009299e-05 -2.686745e-05 -1.712433e-28)
(4.421736e-05 -2.244882e-05 -9.946171e-29)
(-1.286637e-05 -4.832303e-06 8.150501e-28)
(-4.205087e-06 -1.320781e-05 9.833041e-28)
(1.967567e-05 -2.055623e-05 -9.218876e-28)
(4.138592e-05 -2.592956e-05 0)
(5.306434e-05 -2.822665e-05 8.295706e-29)
(5.385299e-05 -2.652028e-05 9.05485e-32)
(4.637326e-05 -2.089032e-05 -1.147752e-28)
(-1.465911e-05 -5.205047e-06 9.588911e-28)
(-4.883846e-06 -1.411518e-05 1.158105e-27)
(2.190388e-05 -2.17577e-05 -1.089807e-27)
(4.59275e-05 -2.700812e-05 0)
(5.834043e-05 -2.86585e-05 0)
(5.836151e-05 -2.595114e-05 7.708809e-28)
(4.958342e-05 -1.978554e-05 3.79708e-28)
(-1.648502e-05 -5.569271e-06 1.124491e-27)
(-5.180471e-06 -1.499331e-05 1.370137e-27)
(2.513152e-05 -2.291692e-05 0)
(5.194656e-05 -2.802833e-05 -1.0931e-27)
(6.529662e-05 -2.901921e-05 1.083443e-28)
(6.457171e-05 -2.545144e-05 1.70985e-27)
(5.482512e-05 -1.961435e-05 -4.3893e-28)
(-1.812314e-05 -5.861572e-06 1.30403e-27)
(-4.657042e-06 -1.572271e-05 0)
(3.019855e-05 -2.394373e-05 1.535666e-27)
(6.06103e-05 -2.896984e-05 -1.338691e-27)
(7.526104e-05 -2.930726e-05 1.250473e-27)
(7.346172e-05 -2.456703e-05 2.186316e-27)
(6.117882e-05 -1.771754e-05 9.181285e-28)
(-1.92899e-05 -6.02035e-06 0)
(-2.236876e-06 -1.611973e-05 0)
(3.854872e-05 -2.460965e-05 3.507564e-27)
(7.381405e-05 -2.972817e-05 0)
(9.05406e-05 -2.969008e-05 2.946282e-27)
(8.76449e-05 -2.390312e-05 1.298756e-27)
(7.188731e-05 -1.582697e-05 -1.098104e-27)
(-1.961782e-05 -5.921296e-06 1.741243e-27)
(3.407079e-06 -1.579935e-05 -2.11787e-27)
(5.207463e-05 -2.443318e-05 -2.031346e-27)
(9.423727e-05 -3.002293e-05 0)
(0.0001143345 -3.02165e-05 1.730614e-27)
(0.0001105194 -2.38664e-05 0)
(9.060776e-05 -1.518332e-05 -8.832662e-28)
(-1.838394e-05 -5.319132e-06 1.990175e-27)
(1.409583e-05 -1.427269e-05 -2.45062e-27)
(7.412988e-05 -2.290739e-05 -7.103148e-27)
(0.0001259299 -2.976967e-05 -4.574576e-27)
(0.0001507414 -3.125868e-05 1.842676e-27)
(0.0001462979 -2.583814e-05 -2.097672e-28)
(0.0001218388 -1.888555e-05 2.371807e-28)
(-1.419531e-05 -4.016597e-06 -4.397528e-30)
(3.213303e-05 -1.084561e-05 -1.66045e-29)
(0.0001087988 -2.000526e-05 -2.805003e-27)
(0.0001732496 -2.91694e-05 -4.946201e-27)
(0.0002034657 -3.320166e-05 2.685911e-27)
(0.0001973053 -3.123791e-05 -4.618467e-28)
(0.0001672111 -3.072052e-05 -9.616842e-28)
(-8.779077e-06 -7.705677e-07 4.428089e-30)
(5.859585e-05 -4.096452e-06 1.819862e-29)
(0.0001582615 -1.406229e-05 -2.868907e-27)
(0.0002391044 -2.636527e-05 -1.386243e-27)
(0.0002724301 -3.156029e-05 2.223858e-27)
(0.0002602519 -3.683934e-05 -1.420401e-27)
(0.0002214769 -4.962782e-05 0)
(-1.960983e-06 5.122082e-06 0)
(9.722361e-05 7.54181e-06 0)
(0.00022687 -4.607767e-06 -3.116947e-27)
(0.000330947 -2.231155e-05 -2.905686e-27)
(0.0003716121 -3.743606e-05 -5.040351e-27)
(0.0003424961 -6.576426e-05 -5.469656e-27)
(0.0002714661 -9.739133e-05 0)
(1.155862e-05 1.348323e-05 7.916628e-30)
(0.0001589427 2.341561e-05 -3.84041e-29)
(0.0003228144 5.363548e-06 -1.429028e-28)
(0.0004591988 -4.430878e-05 0)
(0.0005031839 -7.058385e-05 -1.105101e-27)
(0.0004393979 -0.0001354801 1.289839e-27)
(0.0002893184 -0.0002144579 4.155453e-27)
(7.193273e-05 8.775089e-06 2.743666e-27)
(0.0002186821 5.037129e-05 -1.370525e-29)
(0.0004250948 4.190814e-05 1.326061e-27)
(0.0005953064 -2.186588e-05 0)
(0.0006450742 -0.000136535 -2.178265e-27)
(0.0004975133 -0.0003571652 1.320143e-26)
(0.0001689352 -0.0005418173 4.545878e-26)
(8.323794e-05 3.820851e-05 2.090854e-27)
(0.0002851831 0.0001115963 1.791404e-27)
(0.0006211737 3.298935e-05 1.684786e-27)
(0.0008547064 -0.0001486868 1.261966e-27)
(0.0008879257 -0.0004548148 4.660312e-27)
(0.0006087718 -0.0007655717 7.58954e-28)
(6.372258e-06 -0.0009563601 3.242405e-26)
(0.000100866 6.685322e-05 0)
(0.0005013683 8.290636e-05 -2.352985e-27)
(0.0009886837 -9.151812e-05 -4.398443e-27)
(0.001349133 -0.0004476881 -1.088051e-27)
(0.001368769 -0.0008757187 1.846526e-26)
(0.0009074848 -0.001233049 6.228982e-27)
(-6.547069e-05 -0.001412781 0)
(0.0002220645 3.664697e-05 -1.24769e-27)
(0.0009003479 -3.330654e-05 -9.724654e-27)
(0.001678254 -0.0003339328 -6.785588e-27)
(0.002212011 -0.0008066313 -3.24749e-26)
(0.002213721 -0.001290687 3.063081e-26)
(0.001521437 -0.001672964 -3.400946e-26)
(0.0001504226 -0.001916129 3.118416e-24)
(0.000443643 -2.838026e-05 -3.868728e-27)
(0.00156157 -0.0002355692 3.220568e-28)
(0.002701313 -0.0006198999 0)
(0.003386974 -0.001103574 -1.06902e-27)
(0.003329997 -0.001558993 -7.00828e-26)
(0.0023769 -0.001974997 8.813848e-25)
(0.0005745632 -0.002428422 3.478386e-24)
(0.0007486299 -0.0001320877 8.975954e-27)
(0.002352487 -0.0004704976 -6.482927e-28)
(0.003772175 -0.0008274408 -7.768403e-28)
(0.004541407 -0.00118486 5.738292e-26)
(0.004459384 -0.001553514 -2.696554e-25)
(0.003315398 -0.00206864 3.204909e-24)
(0.001184065 -0.002717322 2.729784e-24)
(0.00100344 -0.0002451178 1.45271e-26)
(0.002955101 -0.0006354076 0)
(0.004530647 -0.000858708 -9.671186e-28)
(0.005385508 -0.001036232 -2.560404e-25)
(0.005357612 -0.00131591 -1.853247e-24)
(0.004076834 -0.001975088 -2.178699e-24)
(0.001506529 -0.002814642 5.078835e-24)
(0.001039399 -0.0002908528 0)
(0.003122992 -0.0006439819 -8.025877e-28)
(0.004795046 -0.0007502202 1.188017e-25)
(0.005722285 -0.0008219971 4.078097e-25)
(0.00576913 -0.001103334 9.120417e-25)
(0.004392738 -0.001878541 4.817939e-24)
(0.001707661 -0.002884433 9.361166e-24)
(0.0009208027 -0.0002559458 0)
(0.002914219 -0.0005356201 -1.069498e-24)
(0.004578072 -0.0005761758 -3.865758e-25)
(0.005558794 -0.0006223492 2.258037e-24)
(0.005577928 -0.001023727 4.171617e-24)
(0.004140058 -0.001978269 8.889857e-24)
(0.0015112 -0.003072005 -9.155537e-24)
(0.0007399104 -0.0002057038 2.399426e-26)
(0.00249775 -0.0003711804 -5.871045e-25)
(0.004092533 -0.0003532781 -1.400928e-24)
(0.005033563 -0.0004370103 2.039351e-24)
(0.004877727 -0.001034747 1.74304e-24)
(0.003314029 -0.002219671 4.447567e-24)
(0.0009469184 -0.003438888 2.411049e-24)
(0.000540594 -0.0001138747 8.899534e-26)
(0.002074739 -0.0001237312 1.384639e-24)
(0.003550837 -7.464798e-05 -2.051487e-25)
(0.004303943 -0.0003003775 -7.289694e-25)
(0.003794866 -0.001170572 -4.123742e-24)
(0.001997379 -0.002529365 1.072886e-24)
(-0.0002371678 -0.003745561 -1.483981e-23)
(0.0003640675 6.40372e-05 6.734111e-25)
(0.001689954 0.0002269618 1.039967e-24)
(0.002977951 0.0002022335 6.333286e-25)
(0.003456687 -0.0003507734 1.759751e-24)
(0.002585805 -0.001667622 -5.55576e-24)
(0.0005850305 -0.003276628 4.997137e-25)
(-0.001599237 -0.004363563 -5.604303e-24)
(0.000240691 0.0003226461 1.067919e-24)
(0.001331484 0.0005944017 -3.471075e-25)
(0.002318557 0.0003094664 -1.202308e-24)
(0.002400525 -0.0008014942 2.491852e-24)
(0.001197395 -0.002694023 -6.955845e-24)
(-0.0008837498 -0.00453819 6.401212e-24)
(-0.003001071 -0.005517063 -5.07123e-24)
(0.0001698685 0.0006012389 7.726229e-25)
(0.0009657086 0.0008234053 -1.794086e-25)
(0.001543029 3.469844e-05 -4.530329e-24)
(0.00123155 -0.001836155 5.112025e-25)
(-0.0001153218 -0.004246824 -6.324846e-24)
(-0.001975963 -0.006153812 4.518055e-24)
(-0.00358033 -0.006898136 -4.312208e-24)
(0.0001388748 0.0008204826 -1.124205e-25)
(0.0006401877 0.0007810186 -1.90607e-25)
(0.0007914412 -0.0007193492 -4.509449e-24)
(0.0002120162 -0.003329248 2.109653e-24)
(-0.001006886 -0.00610292 9.05771e-25)
(-0.002490644 -0.007976929 1.103586e-23)
(-0.003696583 -0.008171882 2.185649e-23)
(0.0001134037 0.0009128452 -5.72455e-25)
(0.0004040456 0.0004588704 -6.465204e-25)
(0.0003685945 -0.00176948 1.455919e-25)
(-0.0001558759 -0.005019494 2.540659e-24)
(-0.000939514 -0.008138908 3.194946e-24)
(-0.001585684 -0.0101387 8.071871e-24)
(-0.002261447 -0.01068817 2.453852e-24)
(8.079426e-05 0.000869995 -1.099167e-25)
(0.0002410653 -7.362368e-06 -2.299834e-25)
(0.0001900934 -0.002812676 3.346858e-25)
(-0.0001338786 -0.006515586 2.291696e-25)
(-0.0005070457 -0.009936083 -7.527189e-25)
(-0.0006352067 -0.01237411 5.929663e-25)
(-0.0001541285 -0.01398914 1.852688e-24)
(5.644773e-05 0.0007441958 5.366811e-26)
(0.0001479059 -0.0004339714 -2.595608e-25)
(0.0001548239 -0.003565302 -3.895671e-25)
(8.601561e-05 -0.007460124 -3.242908e-25)
(0.0001008675 -0.01089682 6.780346e-25)
(0.0002898038 -0.01347781 -3.466702e-25)
(0.0005983975 -0.01467958 -4.28024e-24)
(6.266105e-05 0.0006161534 -1.464717e-27)
(0.0001339478 -0.0006914725 -1.385125e-25)
(0.000207381 -0.003853593 -2.589799e-25)
(0.0003330436 -0.007684432 9.961778e-26)
(0.0005498961 -0.01095986 -1.363371e-24)
(0.0008171549 -0.01316198 -5.970022e-25)
(0.001000364 -0.01333902 -9.9184e-25)
(9.855836e-05 0.0005245121 -3.276059e-26)
(0.0001437641 -0.0007119342 -1.606376e-25)
(0.0002347648 -0.003657407 -6.297165e-25)
(0.0004602026 -0.007258299 4.878636e-25)
(0.0007653929 -0.01031388 5.840681e-25)
(0.001134813 -0.01222412 -1.015802e-24)
(0.001615404 -0.01181701 -1.645358e-24)
(0.0001091916 0.0004836438 -3.426007e-25)
(5.631083e-05 -0.0005642965 -1.564031e-25)
(7.637189e-05 -0.003104239 1.562846e-25)
(0.0003537871 -0.006382512 1.872143e-25)
(0.0008251756 -0.009354083 7.509395e-25)
(0.001398546 -0.01114865 2.55751e-24)
(0.001762092 -0.01053624 1.402429e-24)
(9.811281e-05 0.0004437961 -7.561344e-25)
(-0.0001328739 -0.0003200767 3.042148e-25)
(-0.0002601814 -0.002351857 9.035917e-27)
(2.738168e-05 -0.005197245 -2.938768e-25)
(0.0006591821 -0.007985899 -1.656894e-24)
(0.001367377 -0.009734792 1.131218e-24)
(0.001850007 -0.009519003 4.273483e-24)
(6.822561e-05 0.0003599038 -2.812021e-26)
(-0.0003908663 -0.0001024917 5.870898e-25)
(-0.000720386 -0.001579664 5.570887e-25)
(-0.0004888859 -0.003916448 -1.23251e-24)
(0.0002828848 -0.006437778 -4.29063e-24)
(0.001176312 -0.008059632 -4.266153e-24)
(0.001905193 -0.008024216 -1.419553e-24)
(1.666933e-05 0.0002052853 6.725338e-25)
(-0.000712462 -4.471528e-06 -3.318696e-26)
(-0.001325176 -0.0009449342 4.121102e-24)
(-0.001240011 -0.002755942 -1.205544e-24)
(-0.0003954526 -0.004991935 -6.079896e-24)
(0.000771475 -0.00668128 3.664079e-24)
(0.001860374 -0.007000455 7.435405e-24)
(-7.027362e-05 -1.764369e-05 -7.103292e-26)
(-0.00112724 -7.989515e-05 4.242449e-25)
(-0.002121964 -0.0005590413 5.023679e-25)
(-0.00230519 -0.001887644 -1.928918e-24)
(-0.001504224 -0.003892264 -1.236465e-25)
(-0.0001775731 -0.005735472 3.857326e-25)
(0.001100416 -0.006575881 -4.307519e-24)
(-0.0002014925 -0.0002642063 5.651311e-26)
(-0.001579582 -0.0002981421 -6.985494e-25)
(-0.002898883 -0.0004319074 -1.424479e-26)
(-0.003314108 -0.001283018 1.617778e-24)
(-0.002599496 -0.002995004 6.254674e-24)
(-0.001161643 -0.004849151 4.999561e-25)
(0.0002955987 -0.00590369 -1.037429e-23)
(-0.0003521608 -0.0004856505 -1.073703e-24)
(-0.001971328 -0.0005985873 -1.896542e-24)
(-0.003522732 -0.0005194394 1.192904e-24)
(-0.004155427 -0.0009863923 -1.483248e-24)
(-0.00356222 -0.002364467 3.873372e-24)
(-0.002059516 -0.004111955 -2.868308e-24)
(-0.0003944338 -0.00527727 -2.024721e-23)
(-0.0004996265 -0.000638788 -1.231106e-24)
(-0.002278424 -0.0009099456 -5.231919e-25)
(-0.003946152 -0.0007521917 2.29489e-25)
(-0.0047241 -0.0009275318 -1.568601e-24)
(-0.004257339 -0.001974461 7.737978e-24)
(-0.002691034 -0.003563121 1.7389e-23)
(-0.0007722322 -0.004806339 -3.12416e-24)
(-0.0006099162 -0.0007120143 3.205854e-26)
(-0.002448883 -0.001162383 5.118432e-25)
(-0.004094771 -0.001053165 -1.019901e-25)
(-0.0049562 -0.001045487 2.31855e-24)
(-0.004658795 -0.001788404 4.401502e-24)
(-0.003080622 -0.003160838 2.438465e-24)
(-0.0009112697 -0.004353566 1.809636e-25)
(-0.0006462143 -0.0007070934 0)
(-0.002417962 -0.001309141 -2.520595e-25)
(-0.003953783 -0.001334991 -1.003323e-24)
(-0.004808579 -0.001273611 2.343475e-24)
(-0.004603894 -0.001732886 2.939407e-25)
(-0.003026945 -0.002776017 4.793395e-24)
(-0.0005695792 -0.003814818 -1.228146e-23)
(-0.0006046962 -0.000610532 0)
(-0.002140547 -0.001284548 6.543203e-28)
(-0.00351496 -0.00148873 -2.261843e-25)
(-0.00427421 -0.001510471 -5.697694e-25)
(-0.00407029 -0.001779667 -5.983128e-25)
(-0.002487387 -0.002509973 6.459529e-24)
(-1.230798e-05 -0.003425533 -1.967688e-24)
(-0.0004831103 -0.0004287097 1.173464e-26)
(-0.0016835 -0.001069595 0)
(-0.002805185 -0.001433161 0)
(-0.003412183 -0.001615042 -1.44044e-24)
(-0.0031737 -0.001829046 -2.908747e-24)
(-0.001779947 -0.002291248 2.739176e-24)
(0.0005210614 -0.002934334 1.510754e-23)
(-0.00033154 -0.0002381604 5.713345e-27)
(-0.001187473 -0.0007344069 4.498759e-28)
(-0.002016592 -0.001158738 6.206037e-28)
(-0.002451111 -0.001481088 7.353951e-27)
(-0.002239076 -0.001732333 -7.641417e-25)
(-0.001121658 -0.002004449 3.863159e-24)
(0.0008209672 -0.002361946 1.679197e-23)
(-0.000211295 -9.910063e-05 0)
(-0.000790021 -0.0004071435 -7.612776e-27)
(-0.001356582 -0.0007677522 0)
(-0.001649077 -0.001129762 2.062628e-27)
(-0.001473928 -0.001419066 3.969212e-27)
(-0.0006191927 -0.001596249 2.531681e-25)
(0.000897678 -0.001736319 2.831975e-24)
(-0.0001370149 -5.806734e-06 0)
(-0.0005416952 -0.0001789242 3.769245e-27)
(-0.0009355792 -0.0004139519 -5.609723e-27)
(-0.001131305 -0.0007059011 0)
(-0.0009847031 -0.0009858399 6.28066e-27)
(-0.0003639378 -0.001144646 -1.30217e-26)
(0.000724669 -0.001166935 -5.755052e-25)
(-0.0001199448 -2.875135e-05 0)
(-0.0003941177 -6.328059e-05 8.39714e-27)
(-0.0007021982 -0.0002058054 1.232076e-29)
(-0.0008590637 -0.0003768324 1.000198e-26)
(-0.0007791724 -0.0005704642 4.147361e-27)
(-0.0003652062 -0.0007233773 -1.833597e-26)
(0.000372367 -0.0007323022 6.634957e-26)
(-6.291077e-05 -9.673505e-06 -2.992027e-27)
(-0.000296504 -4.427829e-05 3.573538e-27)
(-0.0005412829 -0.0001120607 -3.47069e-30)
(-0.0006902618 -0.0002087934 4.078655e-27)
(-0.0006807057 -0.0003216501 0)
(-0.0004759165 -0.0003945215 0)
(-4.487027e-05 -0.0004385398 1.570673e-26)
(-2.786485e-05 -6.998244e-06 -3.244214e-27)
(-0.0001982813 -3.221215e-05 3.919551e-27)
(-0.0003897954 -6.882673e-05 -3.265123e-27)
(-0.0005265629 -0.0001149752 -2.876462e-27)
(-0.0005683882 -0.0001781942 0)
(-0.0004837668 -0.0001968994 0)
(-0.0002966163 -0.0002212023 6.754394e-27)
(-1.225779e-05 -8.63782e-06 3.171544e-27)
(-0.0001315291 -2.988658e-05 4.005689e-27)
(-0.0002838575 -6.14416e-05 1.276466e-28)
(-0.0003946833 -8.853039e-05 -2.86715e-27)
(-0.0004429239 -0.000121957 -1.364542e-27)
(-0.0004159068 -0.0001368908 7.006205e-28)
(-0.0003251636 -0.0001103608 -4.37399e-30)
(5.450846e-06 -7.444223e-06 2.927194e-27)
(-7.805902e-05 -2.456718e-05 3.880584e-29)
(-0.0001955538 -4.790436e-05 -1.265077e-28)
(-0.000290237 -7.241671e-05 -1.756078e-28)
(-0.0003335595 -9.070013e-05 0)
(-0.0003232386 -0.0001033157 2.503308e-27)
(-0.0002685812 -8.72756e-05 -1.554545e-27)
(1.420202e-05 -7.691376e-06 0)
(-4.348392e-05 -2.274569e-05 6.943701e-29)
(-0.0001320835 -3.920665e-05 1.163595e-28)
(-0.0002048213 -5.36838e-05 -7.145062e-27)
(-0.0002425271 -6.38975e-05 -1.556042e-27)
(-0.0002371685 -6.479139e-05 -4.218128e-27)
(-0.0002017783 -5.814937e-05 -1.40813e-27)
(1.887382e-05 -7.611136e-06 8.328363e-30)
(-2.049883e-05 -2.106284e-05 3.251902e-29)
(-8.880921e-05 -3.373666e-05 0)
(-0.0001468385 -4.350493e-05 8.804404e-30)
(-0.0001752757 -4.70088e-05 -2.449612e-27)
(-0.0001724989 -4.251205e-05 -2.176371e-27)
(-0.0001453177 -3.305607e-05 5.353774e-28)
(2.10054e-05 -7.185043e-06 -2.046021e-27)
(-6.294063e-06 -1.934616e-05 2.600884e-27)
(-6.082079e-05 -2.988407e-05 -4.418004e-27)
(-0.0001078957 -3.699e-05 5.263008e-27)
(-0.0001311153 -3.801707e-05 -1.935795e-27)
(-0.0001283581 -3.17935e-05 0)
(-0.0001070763 -2.181132e-05 -4.765233e-28)
(2.109311e-05 -6.674195e-06 -1.804571e-27)
(1.148476e-06 -1.783484e-05 2.200884e-27)
(-4.415813e-05 -2.721913e-05 -2.116276e-27)
(-8.36336e-05 -3.293705e-05 0)
(-0.0001027618 -3.298703e-05 1.818432e-27)
(-0.0001003169 -2.674453e-05 0)
(-8.361642e-05 -1.78717e-05 -1.408506e-27)
(2.000409e-05 -6.158879e-06 0)
(4.463491e-06 -1.64984e-05 0)
(-3.444827e-05 -2.507738e-05 3.684384e-27)
(-6.821229e-05 -3.017993e-05 0)
(-8.455845e-05 -3.017367e-05 3.131332e-27)
(-8.277034e-05 -2.46846e-05 1.394617e-27)
(-6.94836e-05 -1.711257e-05 -1.199019e-27)
(1.839961e-05 -5.697676e-06 1.374636e-27)
(5.484702e-06 -1.528615e-05 0)
(-2.838414e-05 -2.328202e-05 1.556251e-27)
(-5.797289e-05 -2.821384e-05 -1.530241e-27)
(-7.254772e-05 -2.867941e-05 1.34683e-27)
(-7.162283e-05 -2.435727e-05 2.385833e-27)
(-6.098411e-05 -1.813358e-05 1.02344e-27)
(1.656226e-05 -5.28315e-06 1.192862e-27)
(5.327126e-06 -1.422651e-05 1.444433e-27)
(-2.445407e-05 -2.180393e-05 0)
(-5.077062e-05 -2.678527e-05 -1.361964e-27)
(-6.413507e-05 -2.793118e-05 -1.06758e-28)
(-6.405479e-05 -2.481831e-05 2.168438e-27)
(-5.538407e-05 -1.962843e-05 4.331636e-28)
(1.4694e-05 -4.892958e-06 1.034576e-27)
(4.807173e-06 -1.327599e-05 1.254245e-27)
(-2.164283e-05 -2.054535e-05 -1.187204e-27)
(-4.528705e-05 -2.564945e-05 0)
(-5.769051e-05 -2.743292e-05 0)
(-5.815829e-05 -2.514201e-05 8.758913e-28)
(-5.01239e-05 -1.959553e-05 -1.745155e-27)
(1.293848e-05 -4.537428e-06 8.925495e-28)
(4.142961e-06 -1.241064e-05 1.081547e-27)
(-1.945685e-05 -1.939863e-05 -1.021257e-27)
(-4.080758e-05 -2.461245e-05 0)
(-5.241009e-05 -2.698948e-05 -8.198968e-29)
(-5.347947e-05 -2.560129e-05 -1.044844e-31)
(-4.652235e-05 -2.047046e-05 1.135719e-28)
(1.133775e-05 -4.200327e-06 0)
(3.469953e-06 -1.157514e-05 9.297176e-28)
(-1.7624e-05 -1.825434e-05 -8.779393e-28)
(-3.691709e-05 -2.348971e-05 0)
(-4.776088e-05 -2.633301e-05 7.994808e-28)
(-4.939802e-05 -2.584246e-05 1.697166e-28)
(-4.387153e-05 -2.174782e-05 9.867296e-29)
(9.901581e-06 -3.871337e-06 -6.597551e-28)
(2.84218e-06 -1.073479e-05 5.650436e-30)
(-1.600105e-05 -1.704419e-05 -7.426357e-28)
(-3.337927e-05 -2.216366e-05 2.508843e-29)
(-4.340239e-05 -2.525472e-05 3.045855e-29)
(-4.539461e-05 -2.543767e-05 5.392525e-28)
(-4.113044e-05 -2.24106e-05 0)
(8.623559e-06 -3.546908e-06 -1.130251e-27)
(2.28099e-06 -9.882036e-06 0)
(-1.452331e-05 -1.576024e-05 0)
(-3.009642e-05 -2.062788e-05 -6.129417e-28)
(-3.921056e-05 -2.3735e-05 -1.085045e-27)
(-4.12855e-05 -2.429432e-05 4.602191e-28)
(-3.804058e-05 -2.218514e-05 0)
(7.491504e-06 -3.230033e-06 -4.829644e-28)
(1.787427e-06 -9.031679e-06 4.272681e-30)
(-1.317698e-05 -1.444452e-05 6.978535e-30)
(-2.708342e-05 -1.898087e-05 1.939009e-29)
(-3.53057e-05 -2.198339e-05 -4.252431e-28)
(-3.738516e-05 -2.279096e-05 0)
(-3.484466e-05 -2.126104e-05 3.057449e-28)
(6.492557e-06 -2.926198e-06 4.952525e-31)
(1.358872e-06 -8.204752e-06 5.030386e-28)
(-1.195175e-05 -1.314363e-05 4.730842e-28)
(-2.433824e-05 -1.730894e-05 8.537943e-28)
(-3.171927e-05 -2.012854e-05 0)
(-3.373086e-05 -2.103873e-05 3.191861e-28)
(-3.165441e-05 -1.984977e-05 -5.667423e-31)
(5.614985e-06 -2.640021e-06 3.50083e-28)
(9.947767e-07 -7.418537e-06 8.474102e-28)
(-1.082717e-05 -1.189295e-05 7.9802e-28)
(-2.182481e-05 -1.567245e-05 3.755474e-28)
(-2.841232e-05 -1.826079e-05 1.76563e-29)
(-3.030412e-05 -1.919606e-05 2.665576e-28)
(-2.854295e-05 -1.821745e-05 -2.3227e-28)
(4.847674e-06 -2.374733e-06 2.975423e-28)
(6.931846e-07 -6.685328e-06 7.17626e-28)
(-9.787425e-06 -1.071893e-05 3.357282e-28)
(-1.951755e-05 -1.411899e-05 0)
(-2.538491e-05 -1.646761e-05 1.188607e-28)
(-2.714199e-05 -1.741665e-05 1.7569e-28)
(-2.563338e-05 -1.658577e-05 3.93912e-29)
(4.178669e-06 -2.132186e-06 2.524848e-28)
(4.45048e-07 -6.013969e-06 3.025774e-28)
(-8.840646e-06 -9.645973e-06 -1.151686e-29)
(-1.744828e-05 -1.270697e-05 -1.0465e-29)
(-2.268468e-05 -1.485768e-05 0)
(-2.429987e-05 -1.577078e-05 1.854591e-28)
(-2.296876e-05 -1.504862e-05 -1.675745e-29)
(3.59766e-06 -1.912394e-06 2.135471e-28)
(2.449476e-07 -5.405847e-06 2.55837e-28)
(-7.979544e-06 -8.677308e-06 -6.55615e-30)
(-1.559726e-05 -1.143767e-05 -4.462005e-30)
(-2.025156e-05 -1.33964e-05 0)
(-2.170927e-05 -1.425412e-05 1.401141e-28)
(-2.051348e-05 -1.362331e-05 -2.840987e-29)
(3.095486e-06 -1.714405e-06 -2.305815e-31)
(9.153243e-08 -4.857808e-06 4.327077e-28)
(-7.183368e-06 -7.80532e-06 -2.782312e-30)
(-1.391725e-05 -1.029683e-05 -3.785781e-30)
(-1.803967e-05 -1.208054e-05 0)
(-1.933211e-05 -1.287761e-05 0)
(-1.826026e-05 -1.233388e-05 0)
(2.663437e-06 -1.536816e-06 0)
(-1.72547e-08 -4.365614e-06 1.828847e-28)
(-6.435506e-06 -7.022355e-06 0)
(-1.237646e-05 -9.274148e-06 -1.468657e-28)
(-1.602438e-05 -1.090802e-05 7.984625e-30)
(-1.716502e-05 -1.165231e-05 9.115381e-30)
(-1.620579e-05 -1.119039e-05 -6.549477e-29)
(2.292631e-06 -1.378373e-06 1.285471e-28)
(-8.767719e-08 -3.926265e-06 0)
(-5.732389e-06 -6.324304e-06 -3.944625e-30)
(-1.098325e-05 -8.37304e-06 -9.297165e-29)
(-1.420205e-05 -9.885407e-06 1.623387e-28)
(-1.520285e-05 -1.058116e-05 0)
(-1.434082e-05 -1.019185e-05 -6.114384e-29)
(1.973234e-06 -1.238378e-06 1.087594e-28)
(-1.340689e-07 -3.539295e-06 0)
(-5.089893e-06 -5.713528e-06 -1.648043e-30)
(-9.723512e-06 -7.593074e-06 -2.255319e-30)
(-1.256534e-05 -8.995278e-06 1.827738e-28)
(-1.342812e-05 -9.649413e-06 -7.16586e-29)
(-1.264798e-05 -9.327581e-06 4.997038e-29)
(1.697441e-06 -1.115504e-06 0)
(-1.641597e-07 -3.200897e-06 1.100808e-28)
(-4.50708e-06 -5.182285e-06 -1.360769e-30)
(-8.570196e-06 -6.908632e-06 -9.178893e-29)
(-1.106362e-05 -8.212331e-06 7.687935e-29)
(-1.180559e-05 -8.838454e-06 -5.992133e-29)
(-1.110499e-05 -8.586108e-06 -7.319147e-32)
(1.459383e-06 -1.007683e-06 0)
(-1.795943e-07 -2.905015e-06 9.471992e-29)
(-3.972829e-06 -4.720168e-06 -8.789722e-29)
(-7.516857e-06 -6.314455e-06 -7.975431e-29)
(-9.686848e-06 -7.533588e-06 6.370561e-29)
(-1.032222e-05 -8.142734e-06 -4.077876e-30)
(-9.69842e-06 -7.960717e-06 -3.464204e-29)
(1.253637e-06 -9.128009e-07 0)
(-1.828325e-07 -2.645867e-06 0)
(-3.480541e-06 -4.318432e-06 -7.577269e-29)
(-6.553895e-06 -5.801633e-06 6.759958e-29)
(-8.428631e-06 -6.952688e-06 -4.053809e-32)
(-8.968968e-06 -7.555862e-06 0)
(-8.417569e-06 -7.445347e-06 0)
(1.075037e-06 -8.28555e-07 5.918405e-29)
(-1.768997e-07 -2.417038e-06 -7.125304e-29)
(-3.026194e-06 -3.967806e-06 -3.243432e-29)
(-5.672879e-06 -5.360297e-06 6.019618e-29)
(-7.280093e-06 -6.460872e-06 3.044012e-32)
(-7.735714e-06 -7.069742e-06 -2.454331e-30)
(-7.252319e-06 -7.033608e-06 -5.896752e-34)