/*--------------------------------*- C++ -*----------------------------------*\
| =========                 |                                                 |
| \\      /  F ield         | OpenFOAM: The Open Source CFD Toolbox           |
|  \\    /   O peration     | Version:  2206                                  |
|   \\  /    A nd           | Website:  www.openfoam.com                      |
|    \\/     M anipulation  |                                                 |
\*---------------------------------------------------------------------------*/
FoamFile
{
    version     2.0;
    format      ascii;
    arch        "LSB;label=32;scalar=64";
    class       volScalarField;
    location    "1.8";
    object      ddt0(alpha.a);
}
// * * * * * * * * * * * * * * * * * * * * * * * * * * * * * * * * * * * * * //

dimensions      [0 0 -1 0 0 0 0];

internalField   nonuniform List<scalar> 
13078
(
-0.4526127
-0.01483753
-0.001957453
-0.0003424352
-0.0001296848
-0.0001109415
-9.48958e-05
-0.01036718
-0.003466673
-0.0004609802
-0.0001628977
-0.0001236418
-0.000104172
-9.189414e-05
-0.001552393
-0.0004339984
-0.0001417082
-0.000108391
-9.849506e-05
-8.983124e-05
-8.380516e-05
7.687737e-06
-4.776981e-05
-6.26428e-05
-6.713398e-05
-7.189383e-05
-7.35953e-05
-7.382947e-05
0.0001650104
4.127912e-05
-1.042741e-05
-3.555965e-05
-4.862333e-05
-5.765043e-05
-6.373498e-05
0.000144609
5.600091e-05
1.370705e-05
-1.400979e-05
-3.312957e-05
-4.518918e-05
-5.45594e-05
0.0001124212
5.123183e-05
2.17117e-05
-3.084202e-06
-2.20895e-05
-3.709274e-05
-4.783575e-05
8.759002e-05
4.012668e-05
2.098964e-05
7.214487e-08
-1.679382e-05
-3.145469e-05
-4.376786e-05
6.937029e-05
2.893812e-05
1.653305e-05
-3.754626e-07
-1.505176e-05
-2.876438e-05
-4.079667e-05
5.570768e-05
1.885913e-05
1.071499e-05
-2.823935e-06
-1.540218e-05
-2.785612e-05
-3.954833e-05
4.504352e-05
1.013926e-05
4.874501e-06
-6.134186e-06
-1.696447e-05
-2.831705e-05
-3.956552e-05
3.634512e-05
2.807855e-06
-7.06308e-07
-9.899769e-06
-1.942595e-05
-2.988522e-05
-4.068547e-05
2.909167e-05
-3.580445e-06
-5.909316e-06
-1.391143e-05
-2.254802e-05
-3.229212e-05
-4.25548e-05
2.278519e-05
-9.288665e-06
-1.08949e-05
-1.837651e-05
-2.636975e-05
-3.51014e-05
-4.465992e-05
1.715028e-05
-1.447293e-05
-1.572469e-05
-2.19231e-05
-2.923793e-05
-3.760416e-05
-4.678441e-05
1.191434e-05
-1.946718e-05
-2.048667e-05
-2.643862e-05
-3.312668e-05
-4.027288e-05
-4.919871e-05
6.850527e-06
-2.445262e-05
-2.520872e-05
-3.032054e-05
-3.637689e-05
-4.34045e-05
-5.219166e-05
1.798754e-06
-2.944291e-05
-2.983805e-05
-3.439545e-05
-4.001811e-05
-4.686048e-05
-5.547506e-05
-3.413839e-06
-3.448202e-05
-3.447244e-05
-3.868303e-05
-4.428022e-05
-5.084471e-05
-5.885715e-05
-8.796384e-06
-3.955086e-05
-3.928698e-05
-4.299625e-05
-4.680271e-05
-5.293176e-05
-6.189554e-05
-1.436721e-05
-4.488139e-05
-4.442737e-05
-4.748758e-05
-5.148272e-05
-5.756166e-05
-6.521392e-05
-2.03518e-05
-5.080031e-05
-4.978813e-05
-5.203851e-05
-5.495502e-05
-6.096752e-05
-6.88492e-05
-2.705809e-05
-5.720699e-05
-5.532366e-05
-5.686451e-05
-5.919026e-05
-6.503153e-05
-7.267371e-05
-3.459485e-05
-6.396931e-05
-6.120708e-05
-6.199046e-05
-6.325089e-05
-6.565662e-05
-7.30562e-05
-4.299864e-05
-7.130846e-05
-6.771753e-05
-6.719921e-05
-6.717427e-05
-7.012341e-05
-7.763411e-05
-5.245535e-05
-7.942889e-05
-7.4722e-05
-7.230902e-05
-7.074957e-05
-7.17063e-05
-7.877033e-05
-6.347188e-05
-8.866394e-05
-8.212064e-05
-7.777472e-05
-7.471695e-05
-7.440649e-05
-8.090659e-05
-7.641544e-05
-9.918826e-05
-9.020783e-05
-8.380412e-05
-7.909363e-05
-7.75593e-05
-7.967924e-05
-9.181971e-05
-0.0001113571
-9.944917e-05
-9.062406e-05
-8.403321e-05
-8.243348e-05
-8.957452e-05
-0.0001096254
-0.0001248138
-0.0001098796
-9.795863e-05
-8.970673e-05
-8.755669e-05
-9.329552e-05
-0.0001313251
-0.0001415913
-0.0001227718
-0.0001074585
-9.742536e-05
-9.470006e-05
-9.968296e-05
-0.000156607
-0.0001589824
-0.0001367256
-0.0001209292
-0.0001098469
-0.0001078466
-0.0001133043
-0.0001860353
-0.0001818621
-0.000153303
-0.0001357361
-0.0001306445
-0.0001347442
-0.0001443694
-0.0002202322
-0.0002071576
-0.0001793377
-0.0001701618
-0.0001702328
-0.0001869432
-0.0002107377
-0.0002590392
-0.0002380726
-0.0002107822
-0.000204472
-0.0002302047
-0.0002736435
-0.0003213013
-0.0003021913
-0.0002835142
-0.0002674418
-0.0002807493
-0.0003148607
-0.0003853369
-0.0005169708
-0.0003648252
-0.000353179
-0.000344297
-0.0003569289
-0.000404915
-0.0005810527
-0.001014598
-0.0004507314
-0.0004385171
-0.0004260289
-0.0004436468
-0.0005694458
-0.001001117
-0.001998238
-0.0005667778
-0.0005386719
-0.0005088321
-0.0005806338
-0.000896496
-0.001590814
-0.003154374
-0.0007205414
-0.0006589508
-0.0006382139
-0.0007814237
-0.001253507
-0.002195754
-0.004134593
-0.0009772232
-0.0008705362
-0.0008573748
-0.001047147
-0.001633457
-0.002807743
-0.004963147
-0.001513058
-0.001301144
-0.001247346
-0.001513466
-0.002224908
-0.004069627
-0.008062281
-0.002438167
-0.002036422
-0.001898029
-0.002305559
-0.003828808
-0.007810681
-0.01329585
-0.003605801
-0.002991147
-0.002871174
-0.00384885
-0.007794413
-0.01372927
-0.01880127
-0.00464916
-0.004020435
-0.004268092
-0.007782352
-0.01364809
-0.01933442
-0.02461203
-0.005481913
-0.005000769
-0.006947074
-0.01367882
-0.01982567
-0.02478324
-0.02947871
-0.006372047
-0.006668163
-0.01124022
-0.01858197
-0.02560677
-0.03029344
-0.03441394
-0.00766471
-0.009999125
-0.01625367
-0.02297488
-0.02991909
-0.03407715
-0.03970976
-0.01000498
-0.01445644
-0.02093467
-0.02758894
-0.03290471
-0.03634603
-0.04155927
-0.01366685
-0.01894166
-0.02512279
-0.03113533
-0.03534714
-0.03791113
-0.04067263
-0.01867687
-0.02331056
-0.02780878
-0.03306815
-0.03594039
-0.03774598
-0.04029776
-0.02438339
-0.02725227
-0.03013614
-0.03379984
-0.03518596
-0.03605187
-0.03885745
-0.02962613
-0.0305414
-0.03236628
-0.03365566
-0.03414455
-0.03427277
-0.03590433
-0.03352723
-0.03274543
-0.03342354
-0.03392122
-0.03417431
-0.03404903
-0.03307103
-0.03615349
-0.03410694
-0.0340109
-0.03403871
-0.03426427
-0.03418939
-0.03292542
-0.03783056
-0.03490381
-0.03445781
-0.03429862
-0.0345951
-0.03479879
-0.0342312
-0.03776168
-0.03496243
-0.03472149
-0.03478346
-0.03529854
-0.03583021
-0.03597818
-0.03595634
-0.03414957
-0.03457956
-0.03522655
-0.03606614
-0.03690287
-0.03776855
-0.03330973
-0.03265906
-0.0340079
-0.03543367
-0.0366084
-0.03763577
-0.0389667
-0.02958403
-0.03034941
-0.03273344
-0.03510151
-0.03671542
-0.03787956
-0.04087738
-0.02470465
-0.02703695
-0.03010662
-0.03463912
-0.03714286
-0.0388314
-0.04228741
-0.01941528
-0.02329717
-0.02743819
-0.0329743
-0.03663871
-0.03911109
-0.04186892
-0.01468383
-0.01924708
-0.02487027
-0.03056625
-0.03486934
-0.03759128
-0.04007766
-0.01103859
-0.01504843
-0.0210598
-0.02706151
-0.03170149
-0.03459662
-0.03888642
-0.008498352
-0.01069691
-0.01666812
-0.02264805
-0.02839803
-0.03127682
-0.0357529
-0.006920345
-0.007251485
-0.01175248
-0.01848927
-0.02418984
-0.02737894
-0.03014467
-0.005618893
-0.005374346
-0.007316713
-0.01361842
-0.01870763
-0.02230226
-0.02616412
-0.004354606
-0.004212316
-0.004644461
-0.008009429
-0.01321851
-0.01784631
-0.02224094
-0.003115075
-0.00313488
-0.003345025
-0.004430858
-0.00813007
-0.01339865
-0.01733112
-0.002081022
-0.002227915
-0.002431586
-0.003088088
-0.004750647
-0.008303994
-0.01309711
-0.001381508
-0.001536472
-0.001739831
-0.002276884
-0.00326752
-0.005143629
-0.008793826
-0.0009929819
-0.001086137
-0.001207491
-0.001544275
-0.002387854
-0.003776761
-0.005745073
-0.0007838387
-0.0008255017
-0.0008436209
-0.0009961667
-0.00151393
-0.002544154
-0.004293526
-0.0006218739
-0.0006546209
-0.0006558014
-0.000687855
-0.0008775428
-0.001432612
-0.00270299
-0.0004929815
-0.0005180843
-0.0005205136
-0.0005333562
-0.0005831411
-0.0007798144
-0.00137028
-0.0003966296
-0.0004054426
-0.0004051794
-0.0004147035
-0.0004493233
-0.000528105
-0.0006850892
-0.0003276968
-0.0003268668
-0.000313569
-0.0003184142
-0.0003428866
-0.0003857752
-0.0004431522
-0.000269506
-0.0002722497
-0.0002507716
-0.0002402999
-0.000251744
-0.0002752772
-0.0003038314
-0.0002219068
-0.0002291076
-0.0002097509
-0.0002016002
-0.0001954513
-0.0002007708
-0.0002111393
-0.0001819258
-0.0001936355
-0.0001763841
-0.0001641445
-0.0001562863
-0.0001559149
-0.0001603722
-0.0001490275
-0.0001650965
-0.0001526335
-0.0001415155
-0.0001327019
-0.000130403
-0.0001348406
-0.0001222092
-0.0001432315
-0.0001325883
-0.000123197
-0.0001164674
-0.0001153573
-0.0001205585
-9.998597e-05
-0.0001236134
-0.0001155777
-0.0001094997
-0.0001045474
-0.0001046317
-0.0001110893
-8.189046e-05
-0.0001080693
-0.0001021531
-9.779258e-05
-9.472427e-05
-9.511879e-05
-0.0001031101
-6.662534e-05
-9.475189e-05
-9.064737e-05
-8.801626e-05
-8.599209e-05
-8.633682e-05
-8.957668e-05
-5.452627e-05
-8.37658e-05
-8.077651e-05
-7.984584e-05
-7.900719e-05
-8.063816e-05
-8.849252e-05
-4.448023e-05
-7.458007e-05
-7.253631e-05
-7.271911e-05
-7.332217e-05
-7.635376e-05
-8.408905e-05
-3.573225e-05
-6.642571e-05
-6.532617e-05
-6.64701e-05
-6.842197e-05
-7.327998e-05
-8.166721e-05
-2.830918e-05
-5.92544e-05
-5.840484e-05
-6.109717e-05
-6.386878e-05
-6.7318e-05
-7.57265e-05
-2.155838e-05
-5.282203e-05
-5.265892e-05
-5.613922e-05
-5.93514e-05
-6.609585e-05
-7.445155e-05
-1.572889e-05
-4.706669e-05
-4.749508e-05
-5.109074e-05
-5.529465e-05
-6.174267e-05
-7.012963e-05
-1.012424e-05
-4.16516e-05
-4.231351e-05
-4.654195e-05
-5.146739e-05
-5.829006e-05
-6.659817e-05
-5.203373e-06
-3.673521e-05
-3.733099e-05
-4.203641e-05
-4.632147e-05
-5.343927e-05
-6.315141e-05
-4.785301e-07
-3.204008e-05
-3.298645e-05
-3.767708e-05
-4.376598e-05
-5.133984e-05
-5.992134e-05
4.142072e-06
-2.76869e-05
-2.862056e-05
-3.348189e-05
-3.998707e-05
-4.748525e-05
-5.638085e-05
8.47757e-06
-2.346987e-05
-2.428591e-05
-2.985217e-05
-3.6656e-05
-4.42721e-05
-5.335358e-05
1.265075e-05
-1.926679e-05
-2.028804e-05
-2.631099e-05
-3.335175e-05
-4.112777e-05
-5.048422e-05
1.697445e-05
-1.485036e-05
-1.627366e-05
-2.219827e-05
-2.953526e-05
-3.823939e-05
-4.769966e-05
2.173143e-05
-1.026718e-05
-1.195784e-05
-1.913928e-05
-2.702301e-05
-3.560177e-05
-4.516474e-05
2.694825e-05
-5.195278e-06
-7.415576e-06
-1.525958e-05
-2.367348e-05
-3.30182e-05
-4.299625e-05
3.282921e-05
1.592489e-07
-2.944209e-06
-1.170091e-05
-2.072573e-05
-3.06458e-05
-4.10324e-05
3.966763e-05
5.968005e-06
1.812271e-06
-7.977127e-06
-1.787151e-05
-2.855274e-05
-3.952897e-05
4.769369e-05
1.271031e-05
7.141536e-06
-4.051641e-06
-1.530568e-05
-2.701349e-05
-3.855222e-05
5.775686e-05
2.109476e-05
1.303808e-05
-5.948798e-07
-1.34487e-05
-2.632206e-05
-3.835786e-05
7.11377e-05
3.090728e-05
1.842855e-05
1.97551e-06
-1.287726e-05
-2.687481e-05
-3.947058e-05
8.920681e-05
4.177548e-05
2.266968e-05
2.728272e-06
-1.454157e-05
-2.96827e-05
-4.158511e-05
0.0001135196
5.261533e-05
2.32218e-05
-8.708152e-07
-2.016672e-05
-3.441698e-05
-4.632213e-05
0.0001451848
5.754236e-05
1.643134e-05
-1.120184e-05
-2.932877e-05
-4.31076e-05
-5.335636e-05
0.0001654251
4.381988e-05
-7.360826e-06
-2.99875e-05
-4.582846e-05
-5.590585e-05
-6.196105e-05
1.380134e-05
-4.199772e-05
-5.2865e-05
-6.294474e-05
-6.877929e-05
-7.083987e-05
-7.185097e-05
-0.001500253
-0.0003942252
-0.0001353897
-0.0001033341
-9.409287e-05
-8.715629e-05
-8.204746e-05
-0.01041795
-0.003284813
-0.000378325
-0.0001479424
-0.0001214525
-0.0001030369
-9.13426e-05
-8.433755e-05
-7.11917e-05
-5.618055e-05
-4.064395e-05
-2.320905e-05
-9.267973e-06
-0.0003661442
-8.250352e-05
-7.030923e-05
-5.563856e-05
-4.174533e-05
-2.124415e-05
-1.516989e-05
-0.0003016663
-7.799393e-05
-6.781598e-05
-5.251143e-05
-3.715713e-05
-2.275431e-05
-1.848188e-05
-0.0003264244
-7.226017e-05
-6.527706e-05
-5.410211e-05
-3.942757e-05
-2.576133e-05
-2.282343e-05
-0.0003539605
-6.604461e-05
-6.232743e-05
-5.32179e-05
-3.695469e-05
-2.747195e-05
-2.829211e-05
-0.0003918399
-6.038098e-05
-5.943202e-05
-5.238137e-05
-3.731252e-05
-3.077033e-05
-3.508144e-05
-0.0004407357
-5.553598e-05
-5.717117e-05
-5.226565e-05
-3.851775e-05
-3.475031e-05
-4.294568e-05
-0.0004986871
-5.23116e-05
-5.548416e-05
-5.248404e-05
-3.954613e-05
-3.809456e-05
-5.150361e-05
-0.0005779648
-5.063828e-05
-5.479422e-05
-5.292295e-05
-4.150336e-05
-4.219564e-05
-6.036789e-05
-0.0006454638
-4.954448e-05
-5.513497e-05
-5.431741e-05
-4.39785e-05
-4.689596e-05
-6.944167e-05
-0.0007176886
-4.979251e-05
-5.590508e-05
-5.65379e-05
-4.674884e-05
-5.18832e-05
-7.856901e-05
-0.0007977174
-5.090001e-05
-5.747932e-05
-5.88099e-05
-5.045877e-05
-5.689219e-05
-8.77216e-05
-0.0008777692
-5.246112e-05
-5.936042e-05
-6.15669e-05
-5.454238e-05
-6.232084e-05
-9.642286e-05
-0.0009614244
-5.428157e-05
-6.167708e-05
-6.489828e-05
-5.846756e-05
-6.779203e-05
-0.0001068034
-0.00104564
-5.647859e-05
-6.458975e-05
-6.859128e-05
-6.203647e-05
-7.334176e-05
-0.0001167526
-0.001094039
-5.917376e-05
-6.774187e-05
-7.239246e-05
-6.667669e-05
-7.891274e-05
-0.0001267123
-0.001184045
-6.220358e-05
-7.11184e-05
-7.665279e-05
-7.2297e-05
-8.722625e-05
-0.0001369196
-0.001267885
-6.543905e-05
-7.490037e-05
-8.162931e-05
-7.758315e-05
-9.411859e-05
-0.0001471076
-0.00135275
-6.87887e-05
-7.921396e-05
-8.715905e-05
-8.254652e-05
-9.717595e-05
-0.0001573228
-0.00143842
-7.242242e-05
-8.394895e-05
-9.312132e-05
-8.825224e-05
-0.0001038745
-0.0001678809
-0.001526025
-7.644635e-05
-8.879457e-05
-9.95787e-05
-9.564969e-05
-0.0001114318
-0.0001796292
-0.001618063
-8.026426e-05
-9.35113e-05
-0.0001066976
-0.0001047519
-0.0001202733
-0.0001926864
-0.001715002
-8.336753e-05
-9.726857e-05
-0.0001129021
-0.000114937
-0.0001327296
-0.0002078979
-0.001817554
-8.5404e-05
-9.990026e-05
-0.0001143781
-0.0001295579
-0.0001346867
-0.0002232619
-0.001923519
-8.763339e-05
-0.0001037584
-0.0001217658
-0.0001407991
-0.0001464939
-0.0002359641
-0.00202834
-8.90725e-05
-0.0001056543
-0.000126536
-0.0001295327
-0.0001514419
-0.0002502304
-0.002135478
-8.959954e-05
-0.000102539
-0.000124151
-0.0001301511
-0.0001576309
-0.0002689262
-0.002239332
-8.711491e-05
-9.24111e-05
-0.0001119229
-0.0001193139
-0.0001591113
-0.0002720594
-0.002334317
-0.0001035295
-0.000100346
-0.0001149747
-0.0001162893
-0.0001539666
-0.0002794113
-0.0024184
-0.0001130376
-9.48225e-05
-9.161654e-05
-9.988601e-05
-0.0001440109
-0.000279732
-0.00246222
-0.0001058549
-8.840271e-05
-8.313162e-05
-8.29614e-05
-0.0001247093
-0.0002270564
-0.002391654
-0.000120405
-8.842519e-05
-6.390103e-05
-4.95092e-05
-8.024294e-05
-0.0002126326
-0.002119951
-0.000148057
-7.754161e-05
-3.361587e-05
1.008412e-05
2.317593e-05
-6.437652e-05
-0.001382772
-0.0002251575
-0.0001035309
-2.300941e-05
9.628538e-05
0.000290278
0.0006079694
0.003024355
-0.0003958831
-0.0002611616
-0.0001519104
0.0002264994
0.0009457658
0.002727876
0.008399116
-0.0008984323
-0.0008052203
-0.00052616
0.0002960859
0.001913175
0.004738012
0.006658959
-0.002047846
-0.002062852
-0.001541304
-0.0001242028
0.002605656
0.00537149
0.002948575
-0.003826695
-0.004170452
-0.003227976
-0.0003268581
0.00400582
0.008817639
0.005341211
-0.005953127
-0.006789416
-0.005232526
-0.0002270878
0.005189511
0.01453321
0.01051193
-0.007866231
-0.009218233
-0.007192845
-0.002161226
0.005513873
0.02330762
0.02036734
-0.01036937
-0.01314913
-0.01195484
-0.005364877
0.01509727
0.04745281
0.05217477
-0.01486157
-0.01932314
-0.01779681
-0.01139601
0.03100605
0.05822339
0.05894278
-0.02064758
-0.02425806
-0.02437504
-0.01829153
0.03149854
0.04725104
0.009131576
-0.02490877
-0.02957458
-0.02813756
-0.02129817
0.05012369
0.05030721
0.00490394
-0.03053288
-0.03395111
-0.03140034
-0.0158165
0.1198226
0.04904933
0.01316744
-0.03589605
-0.03783786
-0.03200582
0.01412685
0.1437099
0.0262854
0.02681082
-0.0420399
-0.04519861
-0.03907536
0.07041836
0.1225005
0.04018923
0.03845953
-0.04555085
-0.04977861
-0.0427737
-0.01903518
0.1708632
0.05908789
0.03276878
-0.04929894
-0.05371392
-0.04776211
-0.02999145
0.1182343
0.1154104
0.02911922
-0.04821888
-0.05755718
-0.05358326
-0.04098358
0.0510569
0.1764602
0.0178273
-0.04643352
-0.05295963
-0.05008681
-0.04339057
0.07506699
0.1983784
0.02866104
-0.04280867
-0.04793976
-0.04237802
-0.03615563
-0.004394763
0.1854732
0.08614143
-0.03636521
-0.03892052
-0.01949555
0.01224675
-0.04820488
0.01043842
0.06947258
-0.0298649
-0.02256512
0.04100972
0.02707465
0.0168145
-0.08041697
0.01064513
-0.02761956
-0.008615566
0.02104207
-0.009968262
-0.008149653
0.01347719
0.4751329
-0.03127798
-0.02184746
-0.002557613
-0.004237811
-0.008338879
0.01468572
-0.0350417
-0.03061147
-0.02520271
0.01166895
-1.391829e-05
-0.01323366
-0.0389006
-0.03624154
-0.03678244
-0.01952697
0.02368395
0.01240783
-0.04208095
-0.04205338
-0.03805555
-0.01722435
-0.004441286
-0.009231483
0.152239
-0.04430562
-0.0471159
-0.0411259
-0.02649027
-0.02661753
-0.000919581
0.2061394
-0.04733473
-0.05242058
-0.04680993
-0.04563178
-0.03193221
0.1318887
0.1240429
-0.04813741
-0.05575374
-0.05493649
-0.04285022
0.0400186
0.2347246
0.04077841
-0.04645776
-0.05487628
-0.05445045
-0.03740633
0.1263612
0.1667193
0.02332745
-0.04487212
-0.05273183
-0.05181583
-0.03142812
0.1600809
0.1208588
-0.01804195
-0.04011713
-0.04746293
-0.04643108
-0.02155205
0.1563447
0.08547926
-0.01254042
-0.03638741
-0.04337878
-0.03929276
-0.01292188
0.1519652
0.08215012
0.02241007
-0.03154619
-0.03753646
-0.03411176
0.009655675
0.09110516
0.09034199
0.03399327
-0.02699533
-0.03426996
-0.02926619
0.01304698
0.04166729
0.0482617
0.02567662
-0.02397004
-0.03026111
-0.02621192
0.006293745
0.03678014
0.02564722
0.02785549
-0.01973667
-0.02648734
-0.02438076
-0.007965398
0.04101959
0.02418351
-0.005404331
-0.0149729
-0.02158252
-0.01894895
-0.007475551
0.03294678
0.03865814
0.04159767
-0.01016639
-0.01559854
-0.0122864
-0.007127193
0.01185753
0.04354951
0.05729382
-0.00706741
-0.009976555
-0.00743599
-0.00321173
0.004572401
0.02052761
0.02826736
-0.004666142
-0.006688274
-0.004168877
-9.984526e-05
0.004388162
0.01626093
0.0158449
-0.002503919
-0.003801456
-0.002575421
0.000286994
0.005038639
0.01308847
0.01280867
-0.001128344
-0.001704994
-0.001217603
6.215131e-05
0.002446338
0.005838624
0.001574784
-0.0005343384
-0.0006643673
-0.0004202425
0.0001317758
0.001184685
0.002969231
0.002339392
-0.0003207606
-0.0003348183
-0.0001258204
9.595771e-05
0.0005006672
0.00139976
0.005392273
-0.0002127761
-0.0002179941
-8.742542e-05
2.76196e-05
0.0001298222
0.0002859311
0.002301908
-0.0001629241
-0.0001671062
-7.188303e-05
-3.327055e-05
-3.111686e-05
-0.0001170603
-0.0005885344
-0.0001438816
-0.0001505685
-8.719972e-05
-7.61662e-05
-0.0001049497
-0.0002312845
-0.001989114
-0.0001276685
-0.0001598134
-0.0001029006
-0.0001005127
-0.0001396077
-0.0002873324
-0.002283765
-0.0001308138
-0.0001535064
-0.0001083365
-0.000111759
-0.0001531876
-0.0002930426
-0.002474192
-0.0001169102
-0.0001316088
-0.0001050562
-0.0001168269
-0.0001584001
-0.0002858617
-0.002454289
-9.675694e-05
-0.0001006174
-0.0001185654
-0.0001447429
-0.0001626649
-0.0002819232
-0.002384429
-9.664423e-05
-0.0001093898
-0.0001290985
-0.000152433
-0.0001617972
-0.0002709129
-0.002296872
-9.473538e-05
-0.0001110633
-0.0001311581
-0.0001514864
-0.0001566492
-0.0002580141
-0.00219865
-9.232645e-05
-0.0001092969
-0.0001280285
-0.0001455994
-0.0001488227
-0.0002427782
-0.002097988
-8.949797e-05
-0.0001054903
-0.0001220167
-0.00013717
-0.0001430841
-0.0002280023
-0.001992153
-8.605646e-05
-0.0001005116
-0.0001146829
-0.0001277901
-0.0001298888
-0.0002154994
-0.001892856
-8.170807e-05
-9.519171e-05
-0.000107468
-0.0001183879
-0.0001259494
-0.0002022024
-0.001792883
-7.765341e-05
-9.00276e-05
-0.000100651
-0.0001106524
-0.0001177426
-0.0001896036
-0.001696883
-7.383882e-05
-8.511262e-05
-9.452097e-05
-0.0001034812
-0.0001103124
-0.0001778726
-0.001601486
-7.015397e-05
-8.0743e-05
-8.899341e-05
-9.669021e-05
-0.0001035467
-0.0001673798
-0.001514312
-6.667337e-05
-7.662371e-05
-8.360928e-05
-9.100115e-05
-9.74321e-05
-0.0001571035
-0.001429744
-6.346264e-05
-7.269313e-05
-7.872619e-05
-8.533223e-05
-8.528901e-05
-0.0001470728
-0.001346584
-6.035299e-05
-6.904978e-05
-7.435816e-05
-8.050523e-05
-8.528059e-05
-0.0001368249
-0.001265351
-5.755136e-05
-6.592979e-05
-7.04297e-05
-7.571545e-05
-7.946872e-05
-0.0001269127
-0.001178539
-5.517693e-05
-6.304041e-05
-6.663587e-05
-7.13937e-05
-7.388846e-05
-0.00011723
-0.001149588
-5.301277e-05
-6.04251e-05
-6.309977e-05
-6.757298e-05
-6.834425e-05
-0.0001075829
-0.001049079
-5.111249e-05
-5.810328e-05
-5.990381e-05
-6.412657e-05
-6.2987e-05
-9.795148e-05
-0.0009656193
-4.966188e-05
-5.614374e-05
-5.718457e-05
-6.047425e-05
-5.749165e-05
-8.909913e-05
-0.0008854218
-4.874163e-05
-5.471282e-05
-5.450359e-05
-5.752659e-05
-5.244081e-05
-8.017194e-05
-0.0008084253
-4.856319e-05
-5.351989e-05
-5.262426e-05
-5.496305e-05
-4.745726e-05
-7.117693e-05
-0.0007309363
-4.890295e-05
-5.330752e-05
-5.157222e-05
-5.330977e-05
-4.271289e-05
-6.223558e-05
-0.0006577647
-5.096977e-05
-5.425543e-05
-5.065591e-05
-5.144521e-05
-3.733743e-05
-5.357932e-05
-0.0006034239
-5.446103e-05
-5.562796e-05
-5.041882e-05
-4.984804e-05
-3.38299e-05
-4.487813e-05
-0.0005168039
-5.902464e-05
-5.788794e-05
-5.063809e-05
-4.843717e-05
-3.090498e-05
-3.695145e-05
-0.0004590846
-6.443267e-05
-6.076178e-05
-5.15321e-05
-4.755418e-05
-2.756428e-05
-2.992852e-05
-0.0004108962
-7.079255e-05
-6.430968e-05
-5.295382e-05
-4.641658e-05
-2.484774e-05
-2.403487e-05
-0.0003737074
-7.712211e-05
-6.783485e-05
-5.442676e-05
-4.49937e-05
-2.282002e-05
-1.969946e-05
-0.0003498642
-8.250766e-05
-7.033884e-05
-5.53023e-05
-4.354303e-05
-2.163386e-05
-1.720692e-05
-0.000412036
-0.005957438
9.69456e-15
-6.945995e-16
-1.01585e-21
4.945084e-27
-5.761591e-32
-1.133378e-37
-2.393756e-43
-5.166459e-49
-7.349134e-55
-7.861405e-61
-6.517982e-67
-4.177579e-73
-2.096704e-79
-5.394048e-86
6.133797e-94
2.673999e-99
1.692306e-105
-0.002970177
-5.909369e-10
-3.575999e-16
-1.374465e-21
-3.786571e-27
-8.732063e-33
-2.085778e-38
-5.104379e-44
-1.188709e-49
-1.965406e-55
-2.301355e-61
-2.012885e-67
-1.335458e-73
-6.890644e-80
-2.418836e-86
-9.005629e-93
-3.162007e-99
-9.059228e-106
0.00169216
-4.661543e-08
-1.100903e-14
-5.381709e-21
-6.181914e-27
-1.116348e-32
-2.31515e-38
-5.108342e-44
-1.146962e-49
-1.704453e-55
-1.909162e-61
-1.626473e-67
-1.055182e-73
-5.358115e-80
-1.49864e-86
-1.16339e-92
-4.689537e-99
-1.600934e-105
0.001792467
-7.143269e-08
-2.890282e-14
-1.352745e-20
-1.318717e-26
-2.26952e-32
-4.576249e-38
-9.824141e-44
-2.163685e-49
-3.165132e-55
-3.473305e-61
-2.889594e-67
-1.831061e-73
-9.069414e-80
-2.645231e-86
-2.164667e-92
-8.773472e-99
-3.020917e-105
0.001811565
-8.234923e-08
-4.698606e-14
-2.478353e-20
-2.386118e-26
-4.237701e-32
-8.823317e-38
-1.934845e-43
-4.285119e-49
-6.352202e-55
-7.031575e-61
-5.862323e-67
-3.693991e-73
-1.812424e-79
-3.674655e-86
-1.143216e-92
-8.381342e-99
-3.827636e-105
0.001687006
-1.095973e-07
-7.637384e-14
-4.478939e-20
-4.293203e-26
-7.895314e-32
-1.720119e-37
-3.869686e-43
-8.824962e-49
-1.341332e-54
-1.509157e-60
-1.266306e-66
-8.074495e-73
-3.976609e-79
-1.593658e-85
-7.365037e-92
-3.659449e-98
-1.436189e-104
0.0005353034
-1.692685e-07
-1.359882e-13
-8.766691e-20
-8.154274e-26
-1.494715e-31
-3.43115e-37
-8.037271e-43
-1.891547e-48
-2.976205e-54
-3.451267e-60
-2.970411e-66
-1.919203e-72
-9.764343e-79
-4.064796e-85
-2.245236e-91
-1.133569e-97
-4.743196e-104
-0.001974838
-2.72452e-07
-2.46533e-13
-1.774595e-19
-1.626831e-25
-2.968107e-31
-6.994457e-37
-1.698046e-42
-4.176955e-48
-6.847117e-54
-8.282393e-60
-7.362311e-66
-4.932629e-72
-2.623466e-78
-1.174166e-84
-7.005235e-91
-3.842785e-97
-1.732812e-103
-0.008982225
-4.424362e-07
-4.71406e-13
-3.748884e-19
-3.329496e-25
-5.980229e-31
-1.489556e-36
-3.772232e-42
-9.642718e-48
-1.662814e-53
-2.103845e-59
-1.962425e-65
-1.381119e-71
-7.81912e-78
-3.810085e-84
-2.460654e-90
-1.46246e-96
-7.226693e-103
-0.01000136
-7.858004e-07
-1.097737e-12
-8.983587e-19
-7.304509e-25
-1.239442e-30
-3.205395e-36
-8.547088e-42
-2.306918e-47
-4.219866e-53
-5.701593e-59
-5.619004e-65
-4.178347e-71
-2.565632e-77
-1.373644e-83
-9.813204e-90
-6.353952e-96
-3.447733e-102
-0.0118771
-1.300372e-06
-3.050615e-12
-3.297453e-18
-2.458072e-24
-2.975748e-30
-7.290774e-36
-2.050524e-41
-5.813213e-47
-1.13901e-52
-1.635711e-58
-1.717971e-64
-1.369646e-70
-9.194511e-77
-5.516283e-83
-4.364379e-89
-3.095486e-95
-1.853297e-101
-0.01315147
-1.323748e-06
-4.74543e-12
-7.689209e-18
-7.00561e-24
-7.64254e-30
-1.764106e-35
-5.252423e-41
-1.563235e-46
-3.308883e-52
-5.129266e-58
-5.75588e-64
-4.996739e-70
-3.695714e-76
-2.49172e-82
-2.174416e-88
-1.657683e-94
-1.092435e-100
-0.01431836
-1.187798e-06
-4.273402e-12
-7.717255e-18
-8.575393e-24
-1.349405e-29
-3.882367e-35
-1.326493e-40
-4.398097e-46
-1.045452e-51
-1.7707e-57
-2.152512e-63
-2.028099e-69
-1.679666e-75
-1.26387e-81
-1.19419e-87
-9.9311e-94
-7.209338e-100
-0.01627197
-1.708146e-06
-8.526194e-12
-1.804194e-17
-2.314997e-23
-4.175683e-29
-1.481031e-34
-5.254505e-40
-1.914474e-45
-4.604635e-51
-8.147391e-57
-1.046642e-62
-1.061937e-68
-9.499582e-75
-7.688338e-81
-7.83022e-87
-7.037644e-93
-5.54781e-99
-0.01754054
-1.171178e-06
-5.571481e-12
-1.401808e-17
-2.977169e-23
-1.101412e-28
-5.171652e-34
-2.270921e-39
-9.095724e-45
-2.608385e-50
-5.248699e-56
-7.657119e-62
-8.828782e-68
-8.906722e-74
-8.244671e-80
-8.958547e-86
-8.696394e-92
-7.564935e-98
-0.01820623
1.220053e-06
-8.014629e-12
-1.788382e-17
-3.393989e-23
-8.979635e-29
-3.45324e-34
-1.557995e-39
-6.896602e-45
-2.261614e-50
-5.259714e-56
-8.944557e-62
-1.240628e-67
-1.549537e-73
-1.735899e-79
-2.208135e-85
-2.403552e-91
-2.338442e-97
-0.01960429
-3.202608e-06
9.534301e-12
-2.916725e-17
-7.669677e-23
-2.713586e-28
-9.51473e-34
-3.617265e-39
-1.337533e-44
-3.960245e-50
-9.093704e-56
-1.630973e-61
-2.585519e-67
-3.950372e-73
-5.628823e-79
-8.662495e-85
-1.19398e-90
-1.4074e-96
-0.02114685
-4.279791e-06
-2.834998e-11
-4.630688e-17
-1.135856e-22
-6.185606e-28
-3.106892e-33
-1.162801e-38
-4.177505e-44
-1.245139e-49
-2.831129e-55
-4.873725e-61
-7.328379e-67
-1.114256e-72
-1.651042e-78
-2.728744e-84
-4.055012e-90
-5.02953e-96
-0.02281545
-5.541787e-06
-4.33791e-11
-1.734458e-16
-4.427081e-22
-9.710138e-28
-7.457275e-33
-3.819394e-38
-1.611046e-43
-4.617471e-49
-1.038133e-54
-1.855999e-60
-2.974655e-66
-4.929269e-72
-7.897417e-78
-1.43239e-83
-2.371759e-89
-3.151789e-95
-0.02460997
-7.11476e-06
-6.452893e-11
-2.98094e-16
-8.722197e-22
-4.6649e-28
-1.730992e-32
-1.55712e-37
-9.027077e-43
-3.033791e-48
-6.624887e-54
-1.101762e-59
-1.663221e-65
-2.470537e-71
-1.376349e-77
-9.16248e-83
-1.475357e-88
-1.872203e-94
-0.02660409
-8.921233e-06
-9.427908e-11
-5.009192e-16
-1.571293e-21
-6.311529e-27
1.100993e-32
-1.934895e-37
-1.260716e-42
-6.15946e-48
-1.885265e-53
-3.920323e-59
-7.146996e-65
-1.294884e-70
-1.783604e-76
-4.379836e-82
-1.31347e-87
-1.537394e-93
-0.0288015
-1.111663e-05
-1.372211e-10
-8.412104e-16
-2.965094e-21
-1.256893e-26
-9.089084e-32
2.888088e-37
-2.836894e-42
-1.911969e-47
-8.288293e-53
-2.160129e-58
-4.042213e-64
-7.470012e-70
-1.334137e-75
-2.992932e-81
-5.329206e-87
-6.304474e-93
-0.0312254
-1.373564e-05
-1.962562e-10
-1.391397e-15
-5.658747e-21
-2.751328e-26
-2.221439e-31
-1.713316e-36
-1.547964e-42
-5.016682e-47
-2.534317e-52
-9.37276e-58
-2.411158e-63
-4.973638e-69
-8.041581e-75
-2.393299e-80
-4.746746e-86
-6.048887e-92
-0.0338888
-1.699246e-05
-2.820007e-10
-2.308997e-15
-1.082281e-20
-6.066756e-26
-5.480957e-31
-4.636765e-36
-3.273026e-41
-6.961345e-47
-7.452761e-52
-3.593882e-57
-1.341764e-62
-3.390916e-68
-6.176989e-74
-1.719968e-79
-3.810411e-85
-5.222047e-91
-0.03680271
-2.107827e-05
-4.067213e-10
-3.834291e-15
-2.059237e-20
-1.315801e-25
-1.332502e-30
-1.239154e-35
-9.574733e-41
-6.21842e-46
4.340114e-52
-1.094287e-56
-5.612598e-62
-1.964525e-67
-4.148039e-73
-1.17779e-78
-2.560388e-84
-3.622495e-90
-0.04004173
-2.591966e-05
-5.795849e-10
-6.321179e-15
-3.879322e-20
-2.810444e-25
-3.19392e-30
-3.260034e-35
-2.75446e-40
-1.959005e-45
-1.064617e-50
1.266031e-56
-1.988839e-61
-1.103787e-66
7.012722e-72
-8.769653e-78
-2.211662e-83
-2.366485e-89
-0.04364127
-3.197997e-05
-8.318534e-10
-1.047768e-14
-7.320244e-20
-5.989399e-25
-7.572245e-30
-8.541065e-35
-7.902395e-40
-6.127915e-45
-3.652722e-50
-1.883972e-55
1.541704e-61
-2.557117e-66
-1.149402e-71
-4.298463e-77
-9.097885e-83
-1.376432e-88
-0.04765602
-3.945155e-05
-1.194871e-09
-1.741797e-14
-1.39222e-19
-1.2828e-24
-1.836682e-29
-2.322273e-34
-2.383434e-39
-2.038156e-44
-1.348148e-49
-7.875076e-55
-4.389563e-60
4.496402e-66
-4.439821e-71
-1.992562e-76
-5.521789e-82
-1.039507e-87
-0.05211361
-4.849917e-05
-1.710643e-09
-2.908243e-14
-2.672206e-19
-2.7388e-24
-4.417676e-29
-6.202312e-34
-6.83657e-39
-6.392143e-44
-4.591505e-49
-2.975336e-54
-1.854915e-59
-5.064385e-65
-5.483083e-72
-2.91308e-75
-6.912466e-81
-6.225564e-87
-0.05714174
-5.967365e-05
-2.454269e-09
-4.940745e-14
-5.256852e-19
-5.861527e-24
-1.074562e-28
-1.69235e-33
-2.102482e-38
-2.209009e-43
-1.740358e-48
-1.256761e-53
-8.867014e-59
-1.264923e-63
-5.971342e-69
1.961142e-75
-2.34878e-80
-1.625384e-86
-0.06283157
-7.297595e-05
-3.456052e-09
-8.528219e-14
-1.406725e-18
-1.768267e-23
-3.706733e-28
-4.817095e-33
-4.544005e-38
-5.803224e-43
-5.414626e-48
-4.064868e-53
-2.979322e-58
-2.334589e-63
-1.467767e-68
-6.58079e-74
-2.413643e-79
9.106441e-85
-0.06910747
-8.807851e-05
-4.502432e-09
-1.030841e-13
-1.506593e-18
-2.200359e-23
-4.616599e-28
-8.90044e-33
-5.07823e-38
-2.848225e-42
-3.844846e-47
-2.53127e-52
-1.363067e-57
-2.587954e-62
-1.26373e-67
-5.046113e-73
-1.969509e-78
-5.740246e-83
-0.0766885
-0.0001046376
-5.679817e-09
-1.243979e-13
-2.137201e-18
-4.278492e-23
-1.019786e-27
-2.168244e-32
-3.701786e-37
-4.711118e-42
-5.412932e-47
-5.837762e-52
-7.508569e-57
-7.49559e-62
-1.049131e-66
-4.02426e-72
-8.449729e-78
3.025761e-83
-0.08837219
-0.0001130519
-7.119993e-09
-1.818639e-13
-2.623541e-18
-4.952231e-23
-1.339205e-27
-3.358121e-32
-6.93016e-37
-8.878667e-42
-1.111057e-46
-1.388682e-51
-1.549074e-56
-2.161943e-61
-2.179232e-66
-1.802511e-71
-1.936445e-76
-3.148289e-82
-0.1060102
-0.0002137671
-1.914949e-08
-6.480785e-13
-6.384107e-18
-2.017479e-22