/*--------------------------------*- C++ -*----------------------------------*\
| =========                 |                                                 |
| \\      /  F ield         | OpenFOAM: The Open Source CFD Toolbox           |
|  \\    /   O peration     | Version:  2206                                  |
|   \\  /    A nd           | Website:  www.openfoam.com                      |
|    \\/     M anipulation  |                                                 |
\*---------------------------------------------------------------------------*/
FoamFile
{
    version     2.0;
    format      ascii;
    arch        "LSB;label=32;scalar=64";
    class       surfaceVectorField;
    location    "1.8";
    object      ddtCorrDdt0(Ufa);
}
// * * * * * * * * * * * * * * * * * * * * * * * * * * * * * * * * * * * * * //

dimensions      [0 1 -2 0 0 0 0];

internalField   nonuniform List<vector> 
26037
(
(1.355471e-05 -0.0001052888 1.833788e-23)
(-1.092924e-05 -0.0001047064 1.638829e-27)
(1.663349e-06 -2.949815e-05 -6.790187e-25)
(-9.194557e-06 -3.473949e-05 1.855199e-26)
(5.711368e-07 -1.144166e-05 -2.047857e-29)
(-1.95788e-06 -1.270868e-05 -2.052508e-29)
(4.654961e-07 -7.215334e-06 -6.836767e-31)
(1.253029e-07 -7.259574e-06 0)
(4.483725e-07 -6.575034e-06 -1.890255e-26)
(6.236927e-07 -6.520495e-06 -8.762745e-31)
(3.701718e-07 -6.48901e-06 -2.773146e-30)
(7.161522e-07 -6.450372e-06 6.04713e-29)
(6.135264e-07 -6.507281e-06 -1.793177e-30)
(2.502547e-07 -6.42553e-06 -3.788164e-26)
(-3.404006e-05 -3.286091e-05 -5.699158e-31)
(-2.890118e-05 -2.297035e-05 2.100044e-29)
(-1.301505e-05 -1.792213e-05 -5.753935e-31)
(-1.484002e-05 -1.634208e-05 -1.697437e-29)
(-2.408881e-06 -8.508344e-06 0)
(-3.63506e-06 -8.013189e-06 1.524556e-30)
(2.811551e-07 -6.564159e-06 -1.927385e-31)
(-3.120161e-08 -6.227413e-06 3.333222e-31)
(8.905201e-07 -6.392281e-06 -2.913997e-31)
(1.066587e-06 -6.145218e-06 2.55432e-28)
(9.58941e-07 -6.462024e-06 -3.013073e-31)
(1.341299e-06 -6.346286e-06 -9.87219e-32)
(1.221503e-06 -6.494318e-06 2.303503e-28)
(7.910355e-07 -6.439794e-06 -2.061584e-30)
(-9.843636e-06 -6.231156e-06 4.513494e-30)
(-6.939882e-06 -3.15476e-06 5.21934e-25)
(-5.481831e-06 -6.414998e-06 -1.512894e-29)
(-5.350393e-06 -4.696745e-06 -8.652386e-26)
(-1.237377e-06 -5.704455e-06 3.865618e-26)
(-1.644582e-06 -4.814215e-06 -2.319697e-29)
(7.531143e-07 -5.804855e-06 2.378456e-26)
(6.554966e-07 -5.24986e-06 -1.234825e-29)
(1.515753e-06 -6.095078e-06 6.067913e-31)
(1.759067e-06 -5.735429e-06 -8.79893e-28)
(1.60236e-06 -6.371821e-06 -7.65e-36)
(2.040595e-06 -6.213965e-06 0)
(1.859287e-06 -6.464741e-06 -3.485446e-28)
(1.353677e-06 -6.411195e-06 2.073735e-30)
(-2.419316e-06 -1.607345e-06 -1.472051e-29)
(-1.607809e-06 -7.575215e-07 9.93922e-30)
(-1.532471e-06 -3.08526e-06 -4.96099e-29)
(-1.528288e-06 -2.053478e-06 2.421021e-26)
(2.667323e-07 -4.343923e-06 1.904745e-27)
(5.200972e-08 -3.539739e-06 9.44959e-26)
(1.662716e-06 -5.17269e-06 -1.237879e-29)
(1.665115e-06 -4.591481e-06 2.66013e-26)
(2.281438e-06 -5.849113e-06 4.150969e-31)
(2.566915e-06 -5.464933e-06 1.432955e-29)
(2.295344e-06 -6.300149e-06 2.323141e-31)
(2.786917e-06 -6.14002e-06 -7.478135e-34)
(2.527188e-06 -6.455083e-06 3.570372e-32)
(1.947052e-06 -6.393881e-06 -1.183189e-30)
(-7.203384e-07 -1.205016e-06 7.674448e-28)
(-5.542909e-07 -5.723775e-07 1.495883e-33)
(4.041406e-08 -2.493391e-06 -1.554542e-27)
(-2.553788e-07 -1.773114e-06 -1.180065e-29)
(1.45645e-06 -3.78455e-06 -5.084936e-29)
(1.159211e-06 -3.125334e-06 -2.4844e-29)
(2.573033e-06 -4.876146e-06 -3.727899e-27)
(2.578394e-06 -4.355768e-06 5.031323e-26)
(3.072806e-06 -5.749003e-06 -3.073144e-26)
(3.388253e-06 -5.399407e-06 -4.333639e-26)
(3.015881e-06 -6.287977e-06 3.843642e-26)
(3.556935e-06 -6.158078e-06 6.762007e-31)
(3.22916e-06 -6.482734e-06 1.210535e-27)
(2.569574e-06 -6.386992e-06 -1.966081e-31)
(-9.288561e-08 -1.145043e-06 -2.436048e-32)
(-2.919041e-07 -5.775146e-07 0)
(8.481805e-07 -2.389779e-06 1.642248e-27)
(2.864762e-07 -1.792046e-06 -1.079397e-29)
(2.282357e-06 -3.697485e-06 -2.654305e-27)
(1.841758e-06 -3.130457e-06 -1.047988e-29)
(3.392102e-06 -4.873495e-06 3.73905e-27)
(3.348049e-06 -4.415799e-06 -1.168246e-29)
(3.874644e-06 -5.801627e-06 5.927856e-31)
(4.214022e-06 -5.513708e-06 5.677474e-26)
(3.770205e-06 -6.345807e-06 -3.7343e-26)
(4.374421e-06 -6.273003e-06 5.247823e-31)
(3.978933e-06 -6.556054e-06 2.505645e-31)
(3.232995e-06 -6.404499e-06 -4.68978e-26)
(8.102675e-08 -1.230486e-06 -1.076394e-29)
(-3.052491e-07 -6.426267e-07 1.466864e-29)
(1.263433e-06 -2.520442e-06 -2.129749e-29)
(4.84151e-07 -1.947579e-06 6.840901e-26)
(2.903295e-06 -3.845221e-06 -2.671944e-26)
(2.318986e-06 -3.326821e-06 7.075527e-26)
(4.167596e-06 -5.052992e-06 -1.281797e-29)
(4.064999e-06 -4.642882e-06 1.328123e-30)
(4.711832e-06 -5.978375e-06 4.656593e-27)
(5.070304e-06 -5.753783e-06 -4.121176e-29)
(4.585807e-06 -6.476244e-06 -1.635511e-31)
(5.267236e-06 -6.481018e-06 -4.413415e-31)
(4.807422e-06 -6.684971e-06 -2.624203e-31)
(3.958179e-06 -6.459409e-06 -5.831948e-31)
(9.084036e-08 -1.366735e-06 4.951821e-30)
(-4.117996e-07 -7.245498e-07 -1.557902e-25)
(1.527058e-06 -2.746258e-06 -2.038746e-29)
(5.554272e-07 -2.154373e-06 6.895706e-30)
(3.460663e-06 -4.109779e-06 -1.077517e-29)
(2.734003e-06 -3.608994e-06 -1.506081e-30)
(4.96641e-06 -5.343193e-06 -2.731958e-29)
(4.799531e-06 -4.966633e-06 -3.312704e-31)
(5.619707e-06 -6.249235e-06 -2.739396e-29)
(5.998978e-06 -6.085774e-06 1.575131e-25)
(5.486984e-06 -6.681662e-06 5.763229e-27)
(6.252042e-06 -6.773339e-06 -6.912393e-31)
(5.733892e-06 -6.88509e-06 -2.642347e-31)
(4.764534e-06 -6.563115e-06 1.681392e-30)
(4.420989e-08 -1.519981e-06 1.66092e-29)
(-5.550414e-07 -8.11163e-07 1.879469e-25)
(1.751301e-06 -3.011934e-06 2.577395e-29)
(5.836763e-07 -2.382313e-06 -2.259326e-25)
(4.042472e-06 -4.445505e-06 4.194054e-27)
(3.156615e-06 -3.938534e-06 -1.073868e-25)
(5.832692e-06 -5.709928e-06 -5.257886e-29)
(5.593954e-06 -5.356879e-06 -1.976237e-29)
(6.624179e-06 -6.601917e-06 5.793467e-27)
(7.024025e-06 -6.495196e-06 1.853729e-25)
(6.492578e-06 -6.967467e-06 -4.132958e-31)
(7.347601e-06 -7.149831e-06 -4.131684e-31)
(6.765054e-06 -7.167944e-06 0)
(5.66376e-06 -6.732025e-06 2.012915e-29)
(-2.567297e-08 -1.682886e-06 3.779104e-30)
(-7.230336e-07 -9.024188e-07 -9.016858e-30)
(1.976427e-06 -3.303189e-06 2.049621e-29)
(5.976476e-07 -2.627828e-06 1.280147e-29)
(4.671231e-06 -4.827871e-06 -1.143918e-29)
(3.609507e-06 -4.305496e-06 1.857652e-29)
(6.786438e-06 -6.142301e-06 -1.92728e-29)
(6.465296e-06 -5.805787e-06 2.337894e-25)
(7.73911e-06 -7.034134e-06 1.26752e-32)
(8.157599e-06 -6.981043e-06 -2.15551e-25)
(7.612604e-06 -7.339904e-06 0)
(8.563759e-06 -7.614636e-06 0)
(7.912089e-06 -7.542942e-06 0)
(6.668343e-06 -6.98473e-06 1.918542e-29)
(-1.114707e-07 -1.858723e-06 0)
(-9.161583e-07 -1.001308e-06 0)
(2.21596e-06 -3.623618e-06 1.087805e-29)
(6.036551e-07 -2.896866e-06 -1.605637e-30)
(5.359703e-06 -5.259426e-06 -4.367333e-30)
(4.102433e-06 -4.716046e-06 -2.932253e-25)
(7.838277e-06 -6.644047e-06 -1.545501e-29)
(7.423467e-06 -6.319676e-06 -4.296002e-30)
(8.972592e-06 -7.551363e-06 -1.749611e-32)
(9.408046e-06 -7.550562e-06 2.491728e-25)
(8.854629e-06 -7.806017e-06 0)
(9.907718e-06 -8.175587e-06 0)
(9.182243e-06 -8.017805e-06 2.913272e-29)
(7.784345e-06 -7.33082e-06 -2.027406e-29)
(-2.146591e-07 -2.053111e-06 -1.60497e-30)
(-1.13873e-06 -1.111085e-06 0)
(2.472917e-06 -3.981927e-06 3.501251e-30)
(6.005386e-07 -3.1973e-06 3.537813e-25)
(6.114405e-06 -5.749912e-06 1.629868e-29)
(4.639896e-06 -5.180275e-06 5.769799e-30)
(8.99587e-06 -7.225043e-06 -7.668983e-27)
(8.475684e-06 -6.908992e-06 -3.121857e-25)
(1.033209e-05 -8.163232e-06 -1.544714e-29)
(1.078262e-05 -8.213723e-06 -2.641993e-29)
(1.022544e-05 -8.37418e-06 2.912269e-29)
(1.138721e-05 -8.842203e-06 1.911425e-29)
(1.058265e-05 -8.600403e-06 -2.200033e-25)
(9.018105e-06 -7.776856e-06 2.039517e-26)
(-3.392499e-07 -2.271542e-06 6.609909e-30)
(-1.39613e-06 -1.234611e-06 1.490257e-29)
(2.747578e-06 -4.387321e-06 -4.942079e-27)
(5.856182e-07 -3.53672e-06 6.610991e-30)
(6.940398e-06 -6.310115e-06 4.715865e-30)
(5.226696e-06 -5.708853e-06 1.459603e-30)
(1.026602e-05 -7.895824e-06 -6.984502e-30)
(9.629545e-06 -7.584635e-06 5.192924e-30)
(1.1825e-05 -8.879541e-06 8.165856e-30)
(1.228813e-05 -8.979523e-06 3.402328e-25)
(1.173302e-05 -9.053453e-06 1.908125e-29)
(1.301008e-05 -9.623382e-06 -2.940036e-25)
(1.212235e-05 -9.298686e-06 2.544145e-25)
(1.037701e-05 -8.32946e-06 -3.328873e-32)
(-4.893289e-07 -2.519035e-06 1.490544e-29)
(-1.694251e-06 -1.374425e-06 3.834358e-25)
(3.0418e-06 -4.848853e-06 8.009353e-31)
(5.565903e-07 -3.922363e-06 0)
(7.845673e-06 -6.951183e-06 -7.308437e-27)
(5.870847e-06 -6.313307e-06 2.731468e-30)
(1.165519e-05 -8.665466e-06 -7.2937e-30)
(1.088972e-05 -8.355238e-06 -3.135902e-29)
(1.345873e-05 -9.708436e-06 5.31413e-30)
(1.393229e-05 -9.852577e-06 4.598249e-25)
(1.338625e-05 -9.85164e-06 -1.062022e-29)
(1.47879e-05 -1.052658e-05 1.361257e-29)
(1.381327e-05 -1.012069e-05 -5.176488e-30)
(1.187042e-05 -8.995098e-06 1.496243e-29)
(-6.690706e-07 -2.800371e-06 2.456787e-29)
(-2.040283e-06 -1.532554e-06 2.455655e-29)
(3.360015e-06 -5.376514e-06 1.928392e-30)
(5.078819e-07 -4.360063e-06 4.130053e-29)
(8.847344e-06 -7.687985e-06 -1.357878e-26)
(6.577487e-06 -7.004193e-06 1.928884e-30)
(1.315642e-05 -9.532885e-06 1.661701e-25)
(1.227733e-05 -9.241579e-06 -4.188082e-25)
(1.525005e-05 -1.065707e-05 -2.110322e-29)
(1.575137e-05 -1.085576e-05 -2.513249e-29)
(1.51993e-05 -1.07761e-05 1.905898e-29)
(1.67445e-05 -1.156604e-05 -4.439903e-30)
(1.567376e-05 -1.107768e-05 -3.365272e-25)
(1.351111e-05 -9.781312e-06 5.138603e-29)
(-8.87094e-07 -3.118707e-06 4.128059e-29)
(-2.443777e-06 -1.710235e-06 0)
(3.697676e-06 -5.976469e-06 4.130886e-29)
(4.273676e-07 -4.852609e-06 6.141966e-25)
(9.956294e-06 -8.533949e-06 -2.926866e-29)
(7.339229e-06 -7.784743e-06 1.370042e-30)
(1.481383e-05 -1.05295e-05 2.498203e-26)
(1.380509e-05 -1.024952e-05 -2.743865e-29)
(1.723338e-05 -1.174903e-05 -8.349149e-30)
(1.775874e-05 -1.200316e-05 -3.903586e-30)
(1.720069e-05 -1.184478e-05 3.156241e-26)
(1.890561e-05 -1.276028e-05 -4.437974e-30)
(1.772481e-05 -1.218456e-05 7.466193e-30)
(1.531857e-05 -1.070068e-05 2.329631e-30)
(-1.156542e-06 -3.475051e-06 1.158561e-28)
(-2.914746e-06 -1.90856e-06 6.614857e-29)
(4.038123e-06 -6.648508e-06 1.173049e-28)
(3.033614e-07 -5.40226e-06 7.011873e-25)
(1.115214e-05 -9.48275e-06 -1.050296e-26)
(8.148749e-06 -8.656996e-06 4.608205e-30)
(1.666429e-05 -1.167704e-05 1.889418e-30)
(1.548575e-05 -1.138599e-05 4.060683e-30)
(1.942067e-05 -1.299959e-05 0)
(1.996767e-05 -1.330667e-05 0)
(1.940835e-05 -1.307411e-05 0)
(2.128253e-05 -1.411952e-05 3.142254e-29)
(1.998034e-05 -1.345345e-05 1.391096e-29)
(1.730993e-05 -1.176817e-05 6.199425e-30)
(-1.485912e-06 -3.871788e-06 -1.225175e-26)
(-3.462443e-06 -2.129032e-06 6.574199e-25)
(4.378871e-06 -7.396727e-06 -9.680804e-27)
(1.306068e-07 -6.01304e-06 1.797021e-28)
(1.244269e-05 -1.054069e-05 -1.19821e-26)
(9.014436e-06 -9.627442e-06 8.946777e-30)
(1.868853e-05 -1.29638e-05 2.236096e-30)
(1.732489e-05 -1.265381e-05 7.380446e-30)
(2.18184e-05 -1.440958e-05 3.178783e-29)
(2.239049e-05 -1.47662e-05 0)
(2.182996e-05 -1.446927e-05 -4.102603e-26)
(2.388065e-05 -1.564169e-05 6.196539e-25)
(2.244797e-05 -1.48888e-05 2.214447e-29)
(1.94974e-05 -1.299525e-05 -4.409428e-26)
(-1.881341e-06 -4.312111e-06 -1.41746e-26)
(-4.096495e-06 -2.373104e-06 1.934996e-28)
(4.726095e-06 -8.227816e-06 -1.102155e-26)
(-9.394995e-08 -6.68914e-06 9.121793e-25)
(1.385129e-05 -1.171841e-05 -2.719767e-26)
(9.953068e-06 -1.070466e-05 1.223526e-28)
(2.091211e-05 -1.439865e-05 5.262954e-30)
(1.935837e-05 -1.406683e-05 5.178742e-30)
(2.443961e-05 -1.597898e-05 4.11405e-29)
(2.505513e-05 -1.638583e-05 -5.961773e-29)
(2.447001e-05 -1.602713e-05 4.887972e-29)
(2.671765e-05 -1.731602e-05 -4.617783e-29)
(2.513474e-05 -1.648229e-05 -1.121111e-29)
(2.188866e-05 -1.438696e-05 -4.998219e-26)
(-2.349449e-06 -4.798583e-06 3.645687e-28)
(-4.827846e-06 -2.641479e-06 8.531675e-25)
(5.087309e-06 -9.14792e-06 3.731884e-28)
(-3.762816e-07 -7.431981e-06 1.038183e-24)
(1.541025e-05 -1.302883e-05 1.167305e-28)
(1.097459e-05 -1.189124e-05 9.884125e-25)
(2.339219e-05 -1.600189e-05 -5.90773e-29)
(2.161453e-05 -1.5632e-05 1.221054e-28)
(2.73135e-05 -1.770094e-05 3.655673e-25)
(2.80232e-05 -1.819457e-05 -6.814613e-29)
(2.734754e-05 -1.773141e-05 1.246348e-25)
(2.985565e-05 -1.91561e-05 -8.018574e-30)
(2.805428e-05 -1.821393e-05 -5.940015e-29)
(2.448942e-05 -1.593162e-05 -1.944516e-29)
(-2.900549e-06 -5.330863e-06 1.960063e-26)
(-5.669258e-06 -2.933396e-06 1.347162e-28)
(5.459074e-06 -1.015477e-05 1.506051e-26)
(-7.279154e-07 -8.2368e-06 1.181854e-24)
(1.712664e-05 -1.446747e-05 4.131006e-28)
(1.207204e-05 -1.317287e-05 1.132169e-24)
(2.615724e-05 -1.777705e-05 3.921108e-26)
(2.407984e-05 -1.731527e-05 1.068343e-24)
(3.049469e-05 -1.959271e-05 6.891678e-29)
(3.126318e-05 -2.012446e-05 -8.781111e-30)
(3.050098e-05 -1.957838e-05 3.762569e-29)
(3.325159e-05 -2.109164e-05 8.731246e-25)
(3.117993e-05 -2.000173e-05 -7.721693e-25)
(2.730505e-05 -1.759169e-05 -6.57542e-26)
(-3.548762e-06 -5.903927e-06 1.955248e-28)
(-6.634481e-06 -3.246832e-06 -2.009287e-28)
(5.825821e-06 -1.123173e-05 1.668662e-26)
(-1.160481e-06 -9.093797e-06 1.955534e-28)
(1.896796e-05 -1.599103e-05 5.022735e-28)
(1.323912e-05 -1.452366e-05 1.789722e-28)
(2.912341e-05 -1.962561e-05 3.238372e-28)
(2.673633e-05 -1.90602e-05 1.21239e-24)
(3.393482e-05 -2.156035e-05 1.030695e-28)
(3.475742e-05 -2.208453e-05 -1.836685e-28)
(3.385728e-05 -2.144809e-05 1.032749e-28)
(3.684714e-05 -2.299357e-05 1.052536e-28)
(3.438891e-05 -2.163367e-05 9.515554e-25)
(3.024789e-05 -1.920398e-05 7.70158e-30)
(-4.305288e-06 -6.511089e-06 -2.009651e-28)
(-7.737416e-06 -3.578718e-06 -1.246415e-24)
(6.185571e-06 -1.235968e-05 0)
(-1.681509e-06 -9.989712e-06 0)
(2.094259e-05 -1.755956e-05 -9.261266e-30)
(1.448369e-05 -1.5913e-05 0)
(3.230188e-05 -2.147786e-05 5.30316e-26)
(2.959898e-05 -2.080875e-05 -1.384465e-24)
(3.75751e-05 -2.345178e-05 -1.874419e-28)
(3.849202e-05 -2.396778e-05 -1.293441e-24)
(3.7294e-05 -2.310343e-05 9.984623e-29)
(4.059233e-05 -2.467445e-05 1.750759e-28)
(3.753269e-05 -2.280944e-05 9.919897e-29)
(3.311364e-05 -2.043333e-05 1.883539e-28)
(-5.18049e-06 -7.142881e-06 -4.845883e-28)
(-8.992011e-06 -3.924911e-06 -1.406711e-24)
(6.540349e-06 -1.351385e-05 0)
(-2.296367e-06 -1.090758e-05 -2.851353e-30)
(2.306628e-05 -1.912502e-05 -2.327182e-28)
(1.581453e-05 -1.730216e-05 -3.297394e-28)
(3.571331e-05 -2.32541e-05 -5.871034e-26)
(3.267495e-05 -2.248782e-05 -2.453998e-28)
(4.141935e-05 -2.513557e-05 -2.426191e-28)
(4.245094e-05 -2.566035e-05 -1.382393e-24)
(4.077535e-05 -2.43182e-05 1.761738e-28)
(4.447346e-05 -2.599971e-05 9.815164e-25)
(4.050514e-05 -2.330192e-05 0)
(3.568116e-05 -2.091878e-05 -8.054367e-29)
(-6.183272e-06 -7.787796e-06 -2.928477e-28)
(-1.040949e-05 -4.281282e-06 -2.898248e-28)
(6.891603e-06 -1.466331e-05 2.292339e-26)
(-3.001528e-06 -1.18301e-05 4.121732e-28)
(2.534004e-05 -2.062349e-05 -3.424361e-28)
(1.724965e-05 -1.864883e-05 -1.86901e-24)
(3.933333e-05 -2.484475e-05 6.945084e-26)
(3.596411e-05 -2.400809e-05 -1.264072e-29)
(4.541323e-05 -2.64688e-05 1.990103e-28)
(4.656571e-05 -2.699497e-05 1.697364e-24)
(4.419327e-05 -2.494957e-05 2.209739e-28)
(4.827695e-05 -2.670714e-05 1.29825e-28)
(4.308893e-05 -2.289862e-05 -4.974778e-29)
(3.789332e-05 -2.062426e-05 -6.365992e-29)
(-7.312535e-06 -8.43616e-06 4.147578e-28)
(-1.199165e-05 -4.645574e-06 4.076194e-28)
(7.259151e-06 -1.577951e-05 2.671736e-29)
(-3.763444e-06 -1.274758e-05 2.176049e-24)
(2.777912e-05 -2.198764e-05 -3.887191e-28)
(1.886232e-05 -1.992985e-05 -8.495079e-28)
(4.310818e-05 -2.61043e-05 2.75637e-28)
(3.954924e-05 -2.532181e-05 0)
(4.934764e-05 -2.717693e-05 1.692731e-25)
(5.088045e-05 -2.788612e-05 3.171708e-28)
(4.723267e-05 -2.467165e-05 2.312894e-25)
(5.201593e-05 -2.669153e-05 -8.554263e-29)
(4.533603e-05 -2.166625e-05 -1.07119e-28)
(3.950222e-05 -1.924593e-05 5.227444e-30)
(-8.537606e-06 -9.085928e-06 8.991423e-28)
(-1.371752e-05 -5.015775e-06 1.953185e-24)
(7.730309e-06 -1.685817e-05 3.111013e-29)
(-4.487415e-06 -1.365797e-05 1.070714e-27)
(3.052587e-05 -2.321407e-05 -4.611571e-28)
(2.084521e-05 -2.115383e-05 -2.363386e-24)
(4.722222e-05 -2.704491e-05 4.14568e-29)
(4.371081e-05 -2.646594e-05 0)
(5.345806e-05 -2.733915e-05 -1.871926e-25)
(5.57545e-05 -2.843981e-05 4.146272e-29)
(5.02122e-05 -2.3733e-05 2.422978e-25)
(5.61566e-05 -2.623295e-05 3.855668e-28)
(4.802082e-05 -2.033555e-05 1.318456e-28)
(4.097628e-05 -1.74504e-05 -2.393204e-28)
(-9.775417e-06 -9.734215e-06 1.058421e-27)
(-1.552297e-05 -5.383949e-06 1.041721e-27)
(8.507057e-06 -1.791063e-05 3.440282e-29)
(-4.967654e-06 -1.455013e-05 2.774288e-24)
(3.391026e-05 -2.43515e-05 -5.451552e-28)
(2.35797e-05 -2.233367e-05 -5.447281e-28)
(5.213088e-05 -2.779732e-05 0)
(4.899804e-05 -2.751483e-05 -5.46754e-28)
(5.835119e-05 -2.726922e-05 3.848577e-28)
(6.187686e-05 -2.883567e-05 5.419527e-29)
(5.404963e-05 -2.289126e-05 5.787191e-28)
(6.151753e-05 -2.56984e-05 2.025181e-24)
(5.225339e-05 -1.969788e-05 -8.04534e-25)
(4.414105e-05 -1.721532e-05 -1.73352e-24)
(-1.084125e-05 -1.036447e-05 1.173706e-25)
(-1.725343e-05 -5.711925e-06 2.166625e-24)
(9.97691e-06 -1.89271e-05 6.850094e-28)
(-4.843406e-06 -1.535201e-05 6.867145e-28)
(3.85332e-05 -2.543876e-05 -5.463068e-28)
(2.77361e-05 -2.342576e-05 7.678358e-28)
(5.861832e-05 -2.848403e-05 -2.05227e-25)
(5.634843e-05 -2.849503e-05 -2.936146e-24)
(6.49347e-05 -2.718922e-05 9.085848e-28)
(7.034876e-05 -2.915928e-05 6.796571e-28)
(5.971605e-05 -2.248968e-05 2.791116e-25)
(6.908715e-05 -2.500514e-05 2.916585e-24)
(5.807591e-05 -1.866075e-05 2.96813e-24)
(5.003548e-05 -1.940149e-05 1.311549e-24)
(-1.143364e-05 -1.086667e-05 6.561247e-28)
(-1.865586e-05 -5.937934e-06 6.501511e-28)
(1.28144e-05 -1.980918e-05 7.697496e-28)
(-3.368545e-06 -1.591561e-05 0)
(4.54041e-05 -2.642042e-05 -9.383357e-26)
(3.445396e-05 -2.427134e-05 3.43913e-24)
(6.793213e-05 -2.909717e-05 -4.477367e-29)
(6.729119e-05 -2.934426e-05 -6.690927e-28)
(7.436225e-05 -2.689063e-05 1.718109e-27)
(8.298085e-05 -2.949407e-05 3.286329e-24)
(6.733657e-05 -2.109892e-05 1.553863e-27)
(8.063456e-05 -2.423035e-05 3.331369e-24)
(6.661214e-05 -1.676746e-05 -9.028184e-29)
(5.510549e-05 -1.780646e-05 1.098381e-27)
(-1.085695e-05 -1.113585e-05 0)
(-1.939198e-05 -5.966853e-06 8.710299e-28)
(1.822008e-05 -2.035075e-05 1.759289e-27)
(6.496158e-07 -1.595437e-05 -1.057141e-27)
(5.619249e-05 -2.713077e-05 1.752695e-27)
(4.537256e-05 -2.451505e-05 4.174885e-24)
(8.217365e-05 -2.966653e-05 1.472451e-27)
(8.411501e-05 -2.986913e-05 0)
(8.909397e-05 -2.675024e-05 2.12302e-27)
(0.000102529 -2.994794e-05 3.707264e-24)
(7.978107e-05 -1.982175e-05 1.025374e-28)
(9.917497e-05 -2.387951e-05 6.490208e-28)
(8.133957e-05 -1.550016e-05 -3.345979e-24)
(6.366297e-05 -1.588577e-05 -5.567073e-28)
(-8.196342e-06 -1.096581e-05 3.717968e-25)
(-1.893786e-05 -5.61595e-06 2.753172e-24)
(2.759185e-05 -2.006909e-05 -2.074874e-27)
(8.850234e-06 -1.502726e-05 -3.018799e-24)
(7.326164e-05 -2.719756e-05 -1.0106e-27)
(6.317388e-05 -2.366399e-05 -6.748988e-24)
(0.000104294 -3.006766e-05 8.659774e-28)
(0.000110081 -2.988859e-05 -2.269222e-27)
(0.0001124283 -2.699401e-05 8.657728e-28)
(0.0001326378 -3.073068e-05 1.786633e-27)
(0.0001005711 -1.94681e-05 -4.413206e-28)
(0.00012852 -2.484644e-05 -1.049408e-28)
(0.0001063329 -1.702974e-05 -3.22673e-28)
(7.937678e-05 -1.512711e-05 -1.063187e-24)
(-2.171036e-06 -9.940098e-06 -2.265772e-28)
(-1.62242e-05 -4.663231e-06 9.92472e-28)
(4.378927e-05 -1.854032e-05 -4.751805e-27)
(2.320235e-05 -1.255202e-05 -1.232112e-27)
(9.985549e-05 -2.629287e-05 -5.847413e-27)
(9.168242e-05 -2.14392e-05 -2.867502e-24)
(0.0001384551 -3.045238e-05 3.559004e-25)
(0.0001497777 -2.945823e-05 -8.978067e-24)
(0.0001485192 -2.849579e-05 8.160798e-28)
(0.0001772184 -3.222199e-05 4.995829e-24)
(0.0001340769 -2.230132e-05 3.273902e-25)
(0.0001719203 -2.853264e-05 -3.358741e-28)
(0.0001446223 -2.480186e-05 -3.626473e-28)
(0.000106731 -1.874801e-05 -1.224668e-24)
(8.949867e-06 -7.58894e-06 -2.07075e-25)
(-1.141998e-05 -2.388278e-06 1.712812e-32)
(7.036951e-05 -1.539943e-05 -1.407295e-27)
(4.545991e-05 -7.463356e-06 8.056174e-31)
(0.0001403405 -2.447289e-05 8.515278e-26)
(0.0001336426 -1.702513e-05 -2.836982e-27)
(0.0001885557 -3.117533e-05 -3.802909e-25)
(0.0002061285 -2.776484e-05 -3.17323e-27)
(0.0002003805 -3.215828e-05 1.109218e-27)
(0.0002377305 -3.237711e-05 2.45754e-27)
(0.0001822675 -3.089275e-05 9.035405e-25)
(0.0002289227 -3.402278e-05 -9.405297e-28)
(0.0001944815 -4.017213e-05 -4.805509e-28)
(0.0001462032 -2.692829e-05 8.702976e-25)
(2.488229e-05 -2.610745e-06 2.302076e-25)
(-5.306062e-06 2.181585e-06 2.21307e-30)
(0.0001083507 -9.059972e-06 -1.423094e-27)
(7.801325e-05 1.732193e-06 9.094716e-30)
(0.0001980546 -2.013555e-05 8.770136e-26)
(0.0001927012 -9.323047e-06 -4.202477e-24)
(0.0002556648 -2.89472e-05 1.57952e-26)
(0.0002856137 -2.431094e-05 -2.561817e-24)
(0.0002662701 -3.417101e-05 -6.210177e-25)
(0.0003221512 -3.447652e-05 -1.404731e-27)
(0.0002408335 -4.31067e-05 -7.090178e-28)
(0.0003012586 -5.106347e-05 -1.985428e-23)
(0.0002469087 -7.346954e-05 0)
(0.0001965872 -5.085594e-05 8.951415e-29)
(4.759431e-05 6.129349e-06 0)
(4.867402e-06 9.309496e-06 3.960125e-30)
(0.0001619902 1.485244e-06 -1.557111e-27)
(0.0001281617 1.548733e-05 -1.921182e-29)
(0.0002787642 -1.342132e-05 -3.011609e-27)
(0.0002749628 3.873522e-07 -1.629007e-27)
(0.0003509113 -2.98678e-05 -1.34998e-24)
(0.0003952257 -3.333528e-05 -1.449484e-27)
(0.0003571512 -5.164416e-05 -5.858544e-24)
(0.0004383837 -5.426792e-05 1.293469e-24)
(0.0003063634 -8.172435e-05 -2.687106e-27)
(0.0003916763 -0.0001007683 -2.070616e-27)
(0.0002817145 -0.0001558188 2.077376e-27)
(0.0002373056 -0.0001150696 7.428232e-28)
(8.519742e-05 1.824727e-05 5.122925e-25)
(4.1819e-05 1.113274e-05 1.376413e-27)
(0.0002408122 1.438764e-05 -4.791216e-26)
(0.000188778 3.689646e-05 -2.60485e-29)
(0.0003909384 -1.934968e-05 -7.152359e-29)
(0.0003740337 2.365007e-05 5.920062e-28)
(0.0004811028 -5.748457e-05 -5.503478e-28)
(0.0005276323 -3.305614e-05 0)
(0.0004723197 -0.0001025357 5.34091e-29)
(0.0005749682 -0.000103549 -3.276109e-23)
(0.0003625407 -0.0001767451 8.621262e-24)
(0.0004696852 -0.0002454498 7.207896e-27)
(0.0002339671 -0.0003749065 2.443673e-26)
(0.0002179012 -0.0003110376 2.409991e-23)
(0.000145255 2.947579e-05 -2.116899e-25)
(7.76964e-05 2.350459e-05 4.885386e-24)
(0.000321809 4.604554e-05 6.556653e-28)
(0.0002523175 8.101419e-05 8.888536e-28)
(0.0005101211 9.873043e-06 6.636388e-28)
(0.0005237782 3.749111e-05 2.618282e-23)
(0.0006201272 -7.958763e-05 -1.086608e-27)
(0.0007260841 -8.524768e-05 6.314164e-28)
(0.0005730531 -0.000245698 -1.574151e-23)
(0.0007684437 -0.0002958524 1.247427e-27)
(0.0003341909 -0.0004516471 2.229098e-22)
(0.0005569258 -0.0005650037 -1.192109e-22)
(9.252082e-05 -0.0007498078 3.889669e-26)
(4.085189e-05 -0.0006685455 1.187881e-22)
(0.0001840567 7.453459e-05 -8.027656e-25)
(9.222771e-05 5.252937e-05 1.046652e-27)
(0.0004531344 7.19978e-05 1.738108e-27)
(0.0003935306 9.735937e-05 2.926399e-23)
(0.0007378403 -5.832021e-05 1.473548e-27)
(0.0008058629 -2.915509e-05 -1.355429e-27)
(0.0008712845 -0.000302813 1.280099e-23)
(0.001103714 -0.0002981515 8.625412e-29)
(0.0007490022 -0.0006119035 2.582293e-23)
(0.001131118 -0.0006652453 1.156828e-26)
(0.0003193775 -0.0008629007 1.189786e-22)
(0.0007625569 -0.0009993604 3.498206e-27)
(-2.262717e-05 -0.001181976 1.633307e-26)
(-0.0002358951 -0.001113007 2.800069e-22)
(0.0002996491 7.409656e-05 -1.167923e-27)
(0.0001622953 5.172644e-05 -6.265091e-28)
(0.0007455604 -5.128789e-06 3.244149e-24)
(0.0007014616 2.496173e-05 -7.715679e-23)
(0.001168941 -0.0002707649 -5.812085e-24)
(0.001332171 -0.0002116536 -6.26906e-23)
(0.001358919 -0.0006635591 8.679626e-27)
(0.001782059 -0.000626839 -1.676664e-26)
(0.001138708 -0.001057892 4.178312e-23)
(0.001794211 -0.001083141 1.188156e-22)
(0.0004351484 -0.00133048 3.20644e-27)
(0.00121952 -0.001453187 -1.393595e-26)
(5.0844e-05 -0.001669593 1.594217e-24)
(-0.0005093031 -0.001607969 -2.380647e-24)
(0.0005580374 9.906662e-07 -5.446629e-27)
(0.0003339241 4.162219e-06 -4.281543e-23)
(0.001286417 -0.0001835431 2.069203e-23)
(0.001234713 -0.0001352105 -4.659278e-27)
(0.001946732 -0.0005731901 -1.970816e-26)
(0.002189803 -0.0004766127 -3.397915e-27)
(0.002212835 -0.001051481 -8.991847e-28)
(0.002793444 -0.0009532083 -9.548412e-23)
(0.001867879 -0.001487082 5.707836e-23)
(0.002772829 -0.0014245 -1.965204e-26)
(0.0008394596 -0.001807061 1.533509e-24)
(0.001952005 -0.001823825 -1.112668e-22)
(0.0003441965 -0.002173964 -2.774482e-20)
(-0.0005528567 -0.00242326 9.24216e-21)
(0.001001455 -0.0001326405 2.264387e-24)
(0.0005969913 -8.021238e-05 2.557932e-27)
(0.002123829 -0.0004260603 1.63177e-28)
(0.00195815 -0.0003532192 -1.640055e-28)
(0.003041542 -0.0008614682 -5.305492e-28)
(0.003243261 -0.000724995 -3.933129e-28)
(0.00335814 -0.00133681 -3.59222e-26)
(0.003962745 -0.00114421 -4.182556e-23)
(0.002852728 -0.001775042 4.062512e-25)
(0.003885297 -0.001556224 1.683281e-24)
(0.001467885 -0.002737503 5.628941e-20)
(0.00279996 -0.002024683 -8.039975e-20)
(0.0005980905 -0.002592915 4.174982e-19)
(-0.0004148646 -0.005933786 1.907009e-19)
(0.001549782 -0.0003013612 4.168484e-27)
(0.0008758736 -0.0001886381 -9.432305e-24)
(0.003060445 -0.0006485629 -3.516453e-25)
(0.002653184 -0.0005530174 -3.240898e-28)
(0.004150042 -0.00100459 2.779456e-26)
(0.004151211 -0.0008431962 -8.722121e-28)
(0.004500417 -0.001372309 1.803912e-22)
(0.004969005 -0.001109362 -1.019717e-25)
(0.00386623 -0.002361264 1.64972e-19)
(0.004828637 -0.00144543 -3.113763e-20)
(0.002175391 -0.006159075 1.033926e-18)
(0.003317861 -0.002055125 -6.785376e-19)
(0.0003577685 -0.002844544 -1.542421e-19)
(-0.0002320361 -0.01396189 1.04386e-17)
(0.001977834 -0.0004395786 7.274259e-27)
(0.001020359 -0.0002680298 7.27525e-27)
(0.003742424 -0.000746638 -4.832812e-28)
(0.00303741 -0.0006397844 -3.997415e-28)
(0.004956627 -0.000948818 -1.769923e-23)
(0.004661428 -0.0008045887 5.886417e-26)
(0.005363096 -0.001582454 -2.281546e-19)
(0.005520189 -0.0009309818 -1.645151e-20)
(0.004484282 -0.005037394 -6.045607e-18)
(0.005278331 -0.001229533 1.310243e-19)
(0.002442299 -0.01345215 9.890117e-18)
(0.002559282 -0.002183198 2.62404e-18)
(-0.0006737453 -0.003059834 -5.529474e-19)
(-0.0005174363 -0.02614991 1.486343e-18)
(0.002075115 -0.0004659314 -3.989497e-28)
(0.000978337 -0.0002734198 0)
(0.003960689 -0.0006971094 8.320459e-25)
(0.003017203 -0.0005900734 -5.339984e-25)
(0.005255529 -0.0009770783 6.302331e-22)
(0.004670374 -0.0006658194 1.205589e-20)
(0.005698627 -0.003856017 -2.074219e-19)
(0.005409416 -0.0007408853 8.693093e-20)
(0.004822678 -0.01153999 3.005728e-19)
(0.004882554 -0.001120393 4.840332e-19)
(0.001202658 -0.02402662 5.634726e-17)
(0.002336858 -0.002089377 -3.846914e-18)
(-0.004722522 -0.004048283 1.349896e-17)
(-0.0009625574 -0.0416857 2.324246e-17)
(0.001909706 -0.0003943091 -5.305605e-25)
(0.0008288886 -0.0002308809 1.201278e-26)
(0.003743489 -0.0005568863 6.400665e-22)
(0.002702014 -0.0004526757 3.745603e-21)
(0.005012059 -0.002137632 9.772471e-21)
(0.00423072 -0.0004686207 2.323463e-20)
(0.005397675 -0.009217616 -2.826679e-18)
(0.004353723 -0.0006463129 -2.61544e-18)
(0.004440918 -0.02149125 2.370316e-17)
(0.003504184 -0.001174893 -2.190848e-20)
(0.001636602 -0.03834148 7.484836e-18)
(0.0008453725 -0.002314445 -8.865281e-18)
(-0.003720815 -0.003672995 -3.960084e-19)
(-0.005392508 -0.05926883 1.702224e-17)
(0.001617726 -0.0002884503 -7.711966e-25)
(0.0006385069 -0.0001598687 -7.924793e-23)
(0.003288003 -0.0009917941 -1.17007e-20)
(0.002238586 -0.0002500799 -1.419447e-19)
(0.004471934 -0.005696289 -5.497187e-19)
(0.003494045 -0.0002330394 -3.904161e-20)
(0.004246705 -0.01654074 -2.031185e-18)
(0.003574799 -0.0004426097 -8.180849e-19)
(0.003262368 -0.03353518 -2.859072e-18)
(8.187917e-05 -0.001708625 1.266597e-17)
(0.0006080837 -0.05500528 -1.37028e-17)
(-0.001794652 -0.002740997 4.891182e-18)
(-0.006549506 -0.004188728 -1.425232e-17)
(-0.002656351 -0.08039595 3.329933e-18)
(0.001307118 -0.0001713162 3.878287e-21)
(0.000446215 -2.525063e-05 -3.28774e-22)
(0.002790606 -0.002923197 4.958149e-19)
(0.001713262 4.112211e-05 -2.444245e-19)
(0.003785017 -0.01150341 2.933658e-18)
(0.0025634 1.971361e-05 4.565876e-19)
(0.003513494 -0.02597319 -1.852198e-17)
(0.002231564 -0.000429492 1.847757e-18)
(0.0002407542 -0.04653882 2.514756e-17)
(2.957688e-05 -0.001639084 -2.760793e-18)
(-0.003863024 -0.07128734 9.157785e-17)
(-0.003649747 -0.003255658 1.244216e-18)
(-0.01704369 -0.006873835 1.119992e-17)
(-0.004869353 -0.1017366 -1.942133e-17)
(0.001024939 -0.0005143811 -3.700095e-20)
(0.0002528266 0.0001899697 -1.866195e-20)
(0.002288985 -0.006250145 7.505361e-19)
(0.001135753 0.0003859697 -3.423987e-19)
(0.003010516 -0.0185331 4.807402e-18)
(0.001482704 0.0001790168 -2.700779e-19)
(0.002436081 -0.037144 -9.738519e-20)
(0.0005360614 -0.0007330476 -2.652154e-18)
(0.0001647187 -0.06120775 -1.238845e-17)
(-0.002086724 -0.002440236 3.330131e-18)
(-0.003372513 -0.08921029 8.570601e-18)
(-0.005997917 -0.004285843 -4.263865e-18)
(-0.01191248 -0.005721736 1.993257e-19)
(-0.01145903 -0.121607 -7.222858e-17)
(0.0007789886 -0.001645365 6.821762e-20)
(8.739229e-05 0.0004532658 2.28915e-22)
(0.001746296 -0.01026044 -8.511697e-20)
(0.0005413876 0.0006669023 8.466361e-19)
(0.002110212 -0.02602271 -8.567066e-18)
(0.0002188592 5.109746e-05 -1.124484e-18)
(0.001150806 -0.04847145 -2.222012e-18)
(-0.001327845 -0.001530683 -1.829788e-18)
(-0.001223456 -0.07637868 -2.795923e-17)
(-0.004470964 -0.003806187 1.649884e-17)
(-0.004529061 -0.1080083 4.700865e-17)
(-0.008618574 -0.005824204 -2.386392e-17)
(-0.01290868 -0.006848974 1.959396e-17)
(-0.009066524 -0.1424276 -2.520304e-16)
(0.000509326 -0.003797387 3.720955e-19)
(1.600169e-05 0.0007073152 -1.104089e-19)
(0.0008856232 -0.01511712 -8.773725e-18)