/*--------------------------------*- C++ -*----------------------------------*\
| =========                 |                                                 |
| \\      /  F ield         | OpenFOAM: The Open Source CFD Toolbox           |
|  \\    /   O peration     | Version:  2206                                  |
|   \\  /    A nd           | Website:  www.openfoam.com                      |
|    \\/     M anipulation  |                                                 |
\*---------------------------------------------------------------------------*/
FoamFile
{
    version     2.0;
    format      ascii;
    arch        "LSB;label=32;scalar=64";
    class       surfaceVectorField;
    location    "1.8";
    object      ddtCorrDdt0(Ufb);
}
// * * * * * * * * * * * * * * * * * * * * * * * * * * * * * * * * * * * * * //

dimensions      [0 1 -2 0 0 0 0];

internalField   nonuniform List<vector> 
26037
(
(0.0002468161 0.0004490568 -2.240316e-23)
(2.388041e-05 0.0002803849 2.659557e-27)
(0.0002861271 0.0006728027 -9.904978e-22)
(0.0001630391 0.0004569881 -1.699895e-24)
(0.0002892171 0.0008727925 -9.71589e-27)
(0.0001798999 0.000736713 -9.737954e-27)
(0.0002945624 0.001099748 -7.443606e-27)
(0.0001812244 0.0009923629 0)
(0.0003044455 0.001322661 -1.044294e-22)
(0.0001899081 0.001213304 -8.121832e-27)
(0.0003167417 0.001520872 -2.132222e-26)
(0.0002126916 0.001431306 3.994436e-25)
(0.0002411248 0.001616974 -1.237733e-26)
(0.0003324151 0.00168812 -1.193489e-22)
(-1.222671e-05 0.0002835125 -6.241881e-28)
(-0.0001656093 0.0001459436 4.014384e-26)
(5.502138e-05 0.0005647962 -6.301874e-28)
(-0.0001196442 0.0004182128 -4.163062e-26)
(5.206331e-05 0.0008380491 0)
(-9.157334e-05 0.000714912 3.601149e-27)
(6.166493e-05 0.001105886 -6.793238e-28)
(-8.032833e-05 0.000995948 9.817763e-27)
(9.314927e-05 0.001341187 -1.028178e-27)
(-3.985703e-05 0.001242139 8.842334e-25)
(0.0001336231 0.001546854 -1.067269e-27)
(1.069385e-05 0.001468308 -3.490684e-28)
(7.069611e-05 0.001661902 8.344767e-25)
(0.0001816995 0.001718614 -1.39336e-26)
(-0.000274526 0.0002726631 -1.08256e-27)
(-0.00046925 0.0001419959 3.337358e-22)
(-0.0002536741 0.0005693899 -3.803558e-26)
(-0.0004376956 0.0004358567 -8.832577e-23)
(-0.0002238852 0.0008730653 1.294583e-22)
(-0.0003951768 0.000739199 -8.645696e-26)
(-0.0001849282 0.001141296 7.042329e-23)
(-0.0003414752 0.001030486 -3.67635e-26)
(-0.0001277666 0.001387461 7.17628e-27)
(-0.0002804971 0.001296599 -2.556759e-24)
(-5.751165e-05 0.001603749 -6.28563e-32)
(-0.0002020914 0.001535381 0)
(-0.0001098399 0.001740997 -1.138541e-24)
(2.404384e-05 0.001785218 1.420593e-26)
(-0.000612401 0.0003046624 -4.477644e-26)
(-0.0007880319 0.000157008 4.31013e-26)
(-0.0005731031 0.0006137262 -1.787509e-25)
(-0.0007594343 0.0004748386 1.101301e-22)
(-0.0005147423 0.0009127951 1.56957e-24)
(-0.000700542 0.0007956658 2.455866e-22)
(-0.0004453659 0.001199451 -4.550379e-26)
(-0.0006289272 0.001096923 5.153882e-23)
(-0.000362367 0.001462088 1.557842e-27)
(-0.0005373506 0.001375903 4.860826e-26)
(-0.000261452 0.001693595 8.626971e-28)
(-0.0004301788 0.001633914 -2.880245e-30)
(-0.000304279 0.001856009 7.003194e-27)
(-0.0001447534 0.00188858 -1.130466e-26)
(-0.0009449896 0.0003336468 -1.429545e-24)
(-0.001130671 0.0001713076 -1.774329e-29)
(-0.000898442 0.0006663126 -4.300902e-24)
(-0.0011023 0.0005204924 -4.613238e-26)
(-0.0008239369 0.0009901906 -1.955245e-25)
(-0.001030802 0.0008668973 -9.566918e-26)
(-0.0007285283 0.001289215 -1.108885e-23)
(-0.0009375369 0.001191527 1.536745e-22)
(-0.0006139068 0.001567063 -1.102859e-22)
(-0.0008178888 0.001489477 -9.855024e-23)
(-0.0004822351 0.001818059 1.185137e-22)
(-0.0006778225 0.001763749 -4.222936e-27)
(-0.0005174009 0.00200856 3.824767e-24)
(-0.000329027 0.002031327 6.140492e-27)
(-0.001303168 0.0003751235 5.635561e-29)
(-0.001515104 0.0001914141 0)
(-0.001247046 0.0007278935 2.291599e-24)
(-0.001465327 0.0005765405 -4.804754e-26)
(-0.001158318 0.001080587 -6.404652e-24)
(-0.001390595 0.0009537542 -5.023181e-26)
(-0.001040042 0.00140873 1.07366e-23)
(-0.001276513 0.001307565 -5.241369e-26)
(-0.0008927381 0.001707668 -3.819371e-27)
(-0.001129459 0.001638709 1.739526e-22)
(-0.0007237747 0.001978065 -1.323566e-22)
(-0.0009540379 0.001934425 -3.938416e-27)
(-0.0007542338 0.002199037 -1.433412e-26)
(-0.0005339199 0.002214666 -1.455602e-22)
(-0.001697092 0.0004017812 -4.807869e-26)
(-0.001926767 0.0002158423 9.259191e-26)
(-0.001630471 0.0008066157 -9.827212e-26)
(-0.001881928 0.0006418333 2.099532e-22)
(-0.001526953 0.001192312 -7.212425e-23)
(-0.001789211 0.001056609 2.102207e-22)
(-0.00138398 0.001555859 -5.733e-26)
(-0.001653386 0.001450464 -4.862945e-28)
(-0.001205711 0.001886951 1.381428e-23)
(-0.001475391 0.00181867 -1.726473e-25)
(-0.0009968384 0.002181531 3.468599e-28)
(-0.001265318 0.002149524 3.874377e-28)
(-0.001022843 0.002438094 2.053923e-28)
(-0.0007628441 0.002440064 -2.260497e-27)
(-0.002134937 0.0004544504 4.493428e-26)
(-0.002392498 0.0002410842 -5.962351e-22)
(-0.002060108 0.0008985889 -9.783241e-26)
(-0.002339251 0.0007174522 4.487341e-26)
(-0.001936762 0.001326049 -5.065938e-26)
(-0.002231457 0.001179377 -1.264041e-27)
(-0.001764555 0.001733642 -1.168514e-25)
(-0.002071684 0.001621783 -3.550578e-28)
(-0.001553727 0.002103084 -1.159388e-25)
(-0.001861861 0.002033579 4.866724e-22)
(-0.001307439 0.002432585 1.742655e-23)
(-0.001614403 0.002404333 -2.766782e-28)
(-0.001329021 0.002730233 2.068124e-28)
(-0.001026076 0.002716949 -2.672266e-27)
(-0.002624754 0.00050947 9.251907e-26)
(-0.002914987 0.0002708703 7.017342e-22)
(-0.002537589 0.001007961 1.414279e-25)
(-0.002853018 0.0008063956 -6.80927e-22)
(-0.002393526 0.00148695 1.237882e-23)
(-0.002727661 0.001325368 -3.259685e-22)
(-0.002191511 0.001944064 -2.360106e-25)
(-0.002541123 0.00182281 -1.039821e-25)
(-0.001944633 0.002358755 1.643506e-23)
(-0.002296506 0.002286135 5.707077e-22)
(-0.001656208 0.002729486 -3.17755e-28)
(-0.002008081 0.002703719 -3.17657e-28)
(-0.001675423 0.003071653 0)
(-0.001328806 0.00305045 7.922736e-26)
(-0.00317589 0.00057412 3.791864e-27)
(-0.003504253 0.0003055086 -8.330098e-26)
(-0.003074666 0.001135446 1.341091e-25)
(-0.003432127 0.0009098023 8.713912e-26)
(-0.002907349 0.001674659 -5.501928e-26)
(-0.003286944 0.001495391 1.335741e-25)
(-0.002672521 0.002189878 -1.028358e-25)
(-0.003070908 0.002056781 7.019384e-22)
(-0.002385751 0.002657549 1.486014e-29)
(-0.002787495 0.002580035 -6.62574e-22)
(-0.002050789 0.003076241 0)
(-0.002453534 0.00305203 0)
(-0.002068445 0.003468573 0)
(-0.001670849 0.003439655 8.095157e-26)
(-0.003798313 0.0006488054 0)
(-0.00417071 0.0003456276 0)
(-0.003681153 0.001283057 8.657005e-26)
(-0.004087112 0.001029392 -6.706716e-26)
(-0.003487861 0.00189234 -9.337341e-27)
(-0.003919618 0.001691937 -8.780521e-22)
(-0.003216467 0.002474924 -9.736484e-26)
(-0.0036706 0.002327278 -7.119438e-27)
(-0.002885176 0.003004016 -2.666614e-29)
(-0.003343755 0.002919803 7.656051e-22)
(-0.002498277 0.00347821 0)
(-0.002958844 0.003454657 0)
(-0.002514855 0.003927127 1.426979e-25)
(-0.002059535 0.003890268 -8.402313e-26)
(-0.00450316 0.00073493 -6.703926e-26)
(-0.004926275 0.0003918331 0)
(-0.004367995 0.001453246 8.948295e-27)
(-0.004829646 0.001167052 1.051642e-21)
(-0.004145524 0.002143324 1.669093e-25)
(-0.004636971 0.001918084 7.748307e-26)
(-0.003833139 0.002803572 -1.960116e-23)
(-0.00435085 0.002638415 -9.262545e-22)
(-0.003451853 0.003403589 -1.037607e-25)
(-0.003975353 0.003310724 -1.997382e-25)
(-0.003006565 0.003941478 1.426488e-25)
(-0.003532839 0.003918016 1.18043e-25)
(-0.003022761 0.004454762 -7.075549e-22)
(-0.002501769 0.004409598 6.087184e-23)
(-0.005302923 0.0008338828 -5.041803e-26)
(-0.005784273 0.0004448211 -2.367255e-26)
(-0.005147363 0.001648745 -1.346269e-23)
(-0.005672777 0.001324918 -5.042628e-26)
(-0.004891867 0.002431597 7.796323e-26)
(-0.005451613 0.002177449 3.103979e-27)
(-0.004533503 0.003180654 -1.978319e-26)
(-0.005123217 0.002994841 7.983705e-26)
(-0.004096014 0.003862514 2.224158e-26)
(-0.004693847 0.003758267 1.047034e-21)
(-0.00358483 0.004473761 1.17982e-25)
(-0.004185918 0.004449493 -9.144692e-22)
(-0.003601347 0.005060078 8.138196e-22)
(-0.003005639 0.005006312 -6.265485e-29)
(-0.006211622 0.0009472645 -2.367712e-26)
(-0.006759769 0.0005054261 1.413231e-21)
(-0.006032855 0.001872636 1.739965e-27)
(-0.006631154 0.00150551 0)
(-0.005739359 0.002761638 -2.283103e-23)
(-0.006377721 0.00247482 6.099276e-27)
(-0.00533048 0.003610496 -1.641038e-25)
(-0.006000558 0.003405464 3.915904e-28)
(-0.004829965 0.00438834 -5.681947e-26)
(-0.005514209 0.004263738 1.326181e-21)
(-0.00424347 0.00508348 -2.903305e-26)
(-0.004929439 0.005056572 1.081227e-25)
(-0.00426117 0.005752671 -9.022699e-27)
(-0.00358039 0.005690104 3.92106e-26)
(-0.00724506 0.001076588 3.265216e-27)
(-0.007869386 0.0005744878 3.263712e-27)
(-0.007040369 0.002128524 4.354532e-27)
(-0.007721632 0.00171109 2.662049e-26)
(-0.006702363 0.003140565 -4.098351e-23)
(-0.007434032 0.002812284 4.355643e-27)
(-0.00624492 0.004098647 4.5013e-22)
(-0.007011363 0.003868014 -1.270531e-21)
(-0.005670456 0.004987391 -1.215087e-25)
(-0.006458724 0.004846295 -1.310675e-25)
(-0.004994851 0.005779957 1.281512e-25)
(-0.005778522 0.005749987 -1.018592e-26)
(-0.005014619 0.006543658 -1.072305e-21)
(-0.004236791 0.006471933 2.931093e-25)
(-0.008420531 0.001223673 2.660763e-26)
(-0.00913168 0.0006530742 0)
(-0.008186732 0.002418549 2.662586e-26)
(-0.008961428 0.001945005 1.792251e-21)
(-0.007806809 0.003566017 5.263851e-27)
(-0.008632735 0.003195746 3.253491e-27)
(-0.007289416 0.004651626 7.249825e-23)
(-0.008153348 0.004388624 9.672582e-27)
(-0.006621299 0.005671319 -1.905647e-26)
(-0.00752261 0.005512483 -8.856489e-27)
(-0.005851714 0.006574842 8.629931e-23)
(-0.00674569 0.006540576 -1.01815e-26)
(-0.005875019 0.007445409 1.038557e-25)
(-0.004987022 0.007364297 9.217475e-26)
(-0.009757792 0.00139122 1.311313e-25)
(-0.01056811 0.0007424509 1.256571e-25)
(-0.009490178 0.002749613 1.344731e-25)
(-0.01037222 0.002211159 2.038138e-21)
(-0.009058137 0.004054692 -2.888771e-23)
(-0.00999747 0.003633125 1.108438e-26)
(-0.008469367 0.005288177 4.470152e-27)
(-0.009452112 0.00498871 9.707304e-27)
(-0.007706391 0.006449941 0)
(-0.008733542 0.00626795 0)
(-0.006829829 0.007479839 0)
(-0.007848977 0.007439152 -9.476801e-27)
(-0.006857803 0.008471365 3.361774e-26)
(-0.005844848 0.008380783 1.46037e-26)
(-0.01127939 0.00158151 8.599797e-24)
(-0.01220251 0.0008438534 2.375455e-21)
(-0.01097347 0.003125488 -2.439162e-23)
(-0.01197732 0.002513119 2.844992e-25)
(-0.01048163 0.004609138 -3.286482e-23)
(-0.01155047 0.004129273 2.185375e-26)
(-0.009811589 0.00601131 5.392134e-27)
(-0.01092997 0.005670179 1.79991e-26)
(-0.008943547 0.007333356 -9.586968e-27)
(-0.01011208 0.007124164 0)
(-0.007946584 0.008508502 -1.107848e-22)
(-0.009108739 0.008457123 1.884819e-21)
(-0.007980138 0.00963666 5.388803e-26)
(-0.006825673 0.009536492 -1.244716e-22)
(-0.01301036 0.001797232 9.921041e-24)
(-0.01406164 0.0009587034 4.387798e-25)
(-0.01266099 0.003551602 -2.753449e-23)
(-0.01380295 0.002855147 2.626821e-21)
(-0.01210134 0.005237846 -7.453282e-23)
(-0.01331734 0.004691608 2.213966e-25)
(-0.01133791 0.006831587 1.289619e-26)
(-0.01261173 0.006445069 1.268984e-26)
(-0.01035538 0.008330317 1.167163e-26)
(-0.01167956 0.008104483 -1.475262e-25)
(-0.009223397 0.009675911 3.183819e-26)
(-0.01055239 0.009595796 -2.029254e-25)
(-0.009261187 0.01095647 -2.822951e-26)
(-0.007946846 0.0108483 -1.398764e-22)
(-0.01497879 0.002041359 7.273139e-25)
(-0.01617538 0.001088521 3.049882e-21)
(-0.01458048 0.004033897 6.803388e-25)
(-0.01587855 0.003241656 2.967357e-21)
(-0.01394578 0.00595058 2.075286e-25)
(-0.01532779 0.005326501 2.843571e-21)
(-0.01307435 0.007767429 -1.461889e-25)
(-0.01453351 0.007317186 2.195161e-25)
(-0.01198595 0.009457924 9.645228e-22)
(-0.01349872 0.009200083 -1.689479e-25)
(-0.01069007 0.01099638 3.230614e-22)
(-0.01222644 0.01090196 -1.142349e-25)
(-0.01072666 0.01245268 -4.939495e-26)
(-0.009228833 0.01233496 -4.850066e-26)
(-0.01721584 0.002317045 -1.157238e-23)
(-0.01857707 0.001235128 3.377201e-25)
(-0.01676186 0.004577989 3.668063e-23)
(-0.01823624 0.003678089 3.364203e-21)
(-0.01604342 0.006751788 7.783761e-25)
(-0.01761038 0.006043405 3.251487e-21)
(-0.01506872 0.008807022 1.116655e-22)
(-0.01670915 0.008300447 3.105186e-21)
(-0.01385173 0.01072147 7.674231e-26)
(-0.01554251 0.01042002 -2.20446e-26)
(-0.01234788 0.01249115 9.872092e-26)
(-0.01410122 0.01238428 2.496048e-21)
(-0.01239676 0.01414676 -2.36945e-21)
(-0.01069242 0.01401937 -1.774664e-22)
(-0.01975671 0.002628326 4.05109e-25)
(-0.0213044 0.001400472 -5.480742e-25)
(-0.01923946 0.005192824 4.061369e-23)
(-0.02091351 0.004170439 4.051682e-25)
(-0.01842493 0.007659896 1.002576e-24)
(-0.0202039 0.006853046 3.638427e-25)
(-0.01732346 0.009994956 6.397849e-25)
(-0.01918393 0.009414786 3.511502e-21)
(-0.01594746 0.01216834 1.601447e-25)
(-0.01786467 0.01182003 -3.710031e-25)
(-0.01423985 0.01418189 1.601901e-25)
(-0.01623051 0.01405268 1.635383e-25)
(-0.01430335 0.01605682 2.882467e-21)
(-0.01236405 0.01592584 -9.019503e-26)
(-0.02264086 0.002978986 -5.481733e-25)
(-0.02439905 0.001586453 -4.39535e-21)
(-0.02205262 0.005885609 0)
(-0.02395144 0.004724378 0)
(-0.02113102 0.00868349 -2.386399e-26)
(-0.02314864 0.007764376 0)
(-0.01988538 0.011334 1.459016e-22)
(-0.02199635 0.01067057 -4.00577e-21)
(-0.01832533 0.0138009 -3.786253e-25)
(-0.02050416 0.01340663 -3.894338e-21)
(-0.01639963 0.0160799 1.46348e-25)
(-0.01865011 0.01596022 3.376156e-25)
(-0.01649297 0.01818515 1.453993e-25)
(-0.01427541 0.01808078 2.638978e-25)
(-0.02591192 0.003372962 -1.362366e-24)
(-0.02790719 0.001795067 -4.938377e-21)
(-0.02524439 0.006664151 0)
(-0.02739554 0.00534579 -7.391295e-27)
(-0.0242046 0.009834769 -5.01117e-25)
(-0.02648977 0.008786906 -7.517563e-25)
(-0.02280169 0.01284426 -1.519378e-22)
(-0.02519348 0.01207924 -5.342872e-25)
(-0.02103277 0.0156606 -5.307078e-25)
(-0.02352637 0.01518206 -4.019115e-21)
(-0.01891319 0.01823212 3.397326e-25)
(-0.0214848 0.01808345 3.088329e-21)
(-0.01905494 0.02062844 0)
(-0.01647458 0.02051762 -8.95007e-26)
(-0.0296178 0.003814229 -8.432994e-25)
(-0.03187918 0.002028293 -8.35413e-25)
(-0.02886181 0.007536271 5.503553e-23)
(-0.03129544 0.006040826 9.634235e-25)
(-0.02769098 0.01112398 -7.849619e-25)
(-0.03027533 0.009931559 -5.263757e-21)
(-0.02611542 0.01452993 1.777581e-22)
(-0.02881659 0.01365773 -3.307848e-26)
(-0.02414632 0.01770834 4.044759e-25)
(-0.02693944 0.01717018 4.883038e-21)
(-0.02179852 0.02062491 4.589448e-25)
(-0.02465031 0.02042816 2.219374e-25)
(-0.02190931 0.02339649 -1.276289e-25)
(-0.01895719 0.0232655 -3.965737e-26)
(-0.03381104 0.004306769 9.701905e-25)
(-0.03636999 0.002287835 1.221543e-24)
(-0.03295725 0.008510892 6.603067e-26)
(-0.03570638 0.006815222 6.054825e-21)
(-0.0316421 0.01256761 -9.057442e-25)
(-0.03456159 0.01120894 -2.001029e-24)
(-0.02987321 0.01642661 6.112852e-25)
(-0.03292721 0.01542343 0)
(-0.02766536 0.0200394 4.688051e-22)
(-0.03082419 0.01940628 7.218495e-25)
(-0.02502849 0.02336148 6.932559e-22)
(-0.02825761 0.02310788 -2.252881e-25)
(-0.02516959 0.02650341 -2.755939e-25)
(-0.02180403 0.02638763 1.776602e-26)
(-0.03854877 0.004853399 2.392823e-24)
(-0.04143773 0.002574915 6.785431e-21)
(-0.03758859 0.009595177 7.685923e-26)
(-0.04068823 0.007672157 2.573001e-24)
(-0.03611738 0.01417586 -1.096147e-24)
(-0.0394084 0.01262703 -6.601806e-21)
(-0.03413998 0.01854276 1.10377e-25)
(-0.03758555 0.01738719 0)
(-0.03166948 0.02264272 -5.176804e-22)
(-0.0352388 0.0218987 1.103928e-25)
(-0.02870989 0.02642311 7.549832e-22)
(-0.03236839 0.02611538 8.954229e-25)
(-0.02891039 0.03003439 4.933164e-25)
(-0.0251015 0.02988168 -4.904447e-25)
(-0.0438923 0.005454079 2.861028e-24)
(-0.04714415 0.002887766 3.19573e-24)
(-0.04281888 0.01079436 8.442416e-26)
(-0.04630666 0.008613555 7.614764e-21)
(-0.04117952 0.01595811 -1.318232e-24)
(-0.04488027 0.01419226 -1.317199e-24)
(-0.03897994 0.02089302 0)
(-0.04285762 0.019559 -1.327327e-24)
(-0.03623308 0.02554466 8.937781e-25)
(-0.0402543 0.02465766 1.460243e-25)
(-0.03292726 0.02987495 1.542851e-24)
(-0.03709183 0.0294288 5.836008e-21)
(-0.03336748 0.03384972 -2.686653e-21)
(-0.02908626 0.03381456 -4.118149e-21)
(-0.04990591 0.00610415 -5.200233e-23)
(-0.05354533 0.003234379 7.71653e-21)
(-0.04871444 0.01211275 1.680336e-24)
(-0.05263261 0.009619691 1.684519e-24)
(-0.04689549 0.01792116 -1.326241e-24)
(-0.05104439 0.01590234 1.909309e-24)
(-0.0444582 0.02348682 -5.10038e-22)
(-0.04881312 0.02194918 -8.199159e-21)
(-0.04140771 0.02873793 2.168108e-24)
(-0.04592578 0.02771198 1.689578e-24)
(-0.03773913 0.0335845 8.269593e-22)
(-0.04238364 0.03311836 8.326789e-21)
(-0.03814329 0.03807878 8.661515e-21)
(-0.03344354 0.03789997 3.269059e-21)
(-0.05666506 0.006790116 2.055606e-24)
(-0.06074269 0.003591583 2.036891e-24)
(-0.05536339 0.0135343 1.914067e-24)
(-0.05975297 0.01071588 0)
(-0.05334568 0.02006719 -2.178567e-22)
(-0.05798847 0.0177517 9.325843e-21)
(-0.05066068 0.02634641 -1.144221e-25)
(-0.05554319 0.0245577 -1.655163e-24)
(-0.04728519 0.03230939 4.208501e-24)
(-0.05237643 0.03107411 9.259568e-21)
(-0.04319151 0.03788058 3.752768e-24)
(-0.04847448 0.03724521 9.559297e-21)
(-0.04377364 0.04300929 -2.506213e-25)
(-0.03832777 0.04297354 2.558815e-24)
(-0.06422363 0.007535483 0)
(-0.06875203 0.003973007 2.814996e-24)
(-0.06279073 0.01505176 4.405246e-24)
(-0.06764728 0.01192829 -2.667987e-24)
(-0.06061287 0.0223875 4.388733e-24)
(-0.06578658 0.01967434 1.045503e-20)
(-0.0576854 0.02945776 3.686879e-24)
(-0.06313172 0.02734261 0)
(-0.054002 0.03621845 5.301739e-24)
(-0.05970029 0.03471108 1.02921e-20)
(-0.04952413 0.04261448 2.848917e-25)
(-0.0554722 0.04172934 1.610982e-24)
(-0.05039725 0.04835272 -9.600848e-21)
(-0.04415896 0.04859418 -1.350988e-24)
(-0.07260845 0.008368065 -1.092059e-22)
(-0.07767342 0.00438296 9.782456e-21)
(-0.07111021 0.01662866 -5.216515e-24)
(-0.0764979 0.0131575 -9.347377e-21)
(-0.06881847 0.02479814 -2.530504e-24)
(-0.07453732 0.02176947 -1.869984e-20)
(-0.06563886 0.03278601 2.195108e-24)
(-0.07171576 0.03019608 -5.717884e-24)
(-0.06164994 0.04042306 2.194589e-24)
(-0.06798435 0.0385714 4.538689e-24)
(-0.05680934 0.04770932 -1.039575e-24)
(-0.06345128 0.04655008 -2.908094e-25)
(-0.05793714 0.05413323 -7.025448e-25)
(-0.051028 0.05452357 -2.013714e-21)
(-0.08197606 0.009187402 1.059387e-25)
(-0.08749363 0.004794681 3.244212e-24)
(-0.08035139 0.01828639 -1.208698e-23)
(-0.0862716 0.01435841 -3.176493e-24)
(-0.07799648 0.02727685 -1.477754e-23)
(-0.08428658 0.02387569 -9.207895e-21)
(-0.07465794 0.03625347 7.031459e-22)
(-0.08142631 0.03320074 -2.325365e-20)
(-0.07034982 0.04489218 2.053699e-24)
(-0.0773663 0.04258034 1.392127e-20)
(-0.06516248 0.05322652 7.564442e-22)
(-0.07257945 0.05166122 -9.42984e-25)
(-0.06668623 0.06040485 -1.189549e-24)
(-0.05888688 0.06113632 -1.983983e-21)
(-0.09223478 0.0100251 7.332186e-23)
(-0.09823954 0.005210919 6.94845e-28)
(-0.09060192 0.01993109 -3.672295e-24)
(-0.09694199 0.01560098 2.205838e-27)
(-0.0881794 0.02976553 4.772208e-22)
(-0.09491987 0.02592688 -7.55e-24)
(-0.0846727 0.03973858 -2.298666e-22)
(-0.0919725 0.03634505 -8.2451e-24)
(-0.08023993 0.04952718 2.930444e-24)
(-0.08796257 0.04648187 6.395229e-24)
(-0.07478652 0.05905525 1.282162e-21)
(-0.08299609 0.05686946 -3.191549e-24)
(-0.07685924 0.06698147 -1.524254e-24)
(-0.06812053 0.06827288 1.592354e-21)
(-0.1034167 0.01085742 -7.075019e-23)
(-0.1099134 0.005607618 8.114609e-27)
(-0.1017685 0.02160975 -3.860045e-24)
(-0.1085606 0.01679513 2.493642e-26)
(-0.09927866 0.03238435 -5.080489e-23)
(-0.1066239 0.02793761 -1.053868e-20)
(-0.09593041 0.04315089 -1.203013e-21)
(-0.1037977 0.03925795 -1.083782e-20)
(-0.09153887 0.0540345 -6.926451e-22)
(-0.09992736 0.05049523 -4.401007e-24)
(-0.08587578 0.06500056 -2.537518e-24)
(-0.09495154 0.0618219 -2.125838e-20)
(-0.08859525 0.07362902 0)
(-0.07893299 0.07569466 2.446597e-25)
(-0.1155031 0.01161748 0)
(-0.1224537 0.005958218 1.855984e-26)
(-0.1138773 0.02311638 -4.65462e-24)
(-0.121037 0.01784564 -5.569122e-26)
(-0.1115789 0.03465101 -9.609785e-24)
(-0.1191906 0.02969252 -4.846362e-24)
(-0.1083208 0.04637246 -6.06263e-22)
(-0.1166319 0.04168777 -4.940457e-24)
(-0.1042196 0.05829739 -1.684531e-21)
(-0.1131607 0.05408357 -9.27754e-21)
(-0.0986424 0.07080158 -6.723417e-24)
(-0.1086558 0.06661787 -5.947791e-24)
(-0.1020922 0.08008473 2.065776e-24)
(-0.09148602 0.08321327 3.015559e-24)
(-0.1284104 0.01225652 -1.357419e-22)
(-0.1357771 0.006235603 6.265511e-24)
(-0.1267924 0.02440348 2.580605e-23)
(-0.1342666 0.01869412 -1.157838e-25)
(-0.1246886 0.03663493 -1.906178e-25)
(-0.1325359 0.03115258 5.813611e-24)
(-0.1218342 0.04910385 -9.735564e-24)
(-0.1302819 0.04384805 0)
(-0.1181154 0.06198648 -9.269122e-24)
(-0.1272306 0.05706039 -1.326483e-20)
(-0.1127836 0.07598765 2.516923e-21)
(-0.1231877 0.07120391 1.289875e-24)
(-0.1175183 0.08584355 1.237797e-23)
(-0.1059519 0.09058797 7.303989e-22)
(-0.1419959 0.01272858 1.097715e-22)
(-0.1496813 0.006414468 5.687453e-21)
(-0.1404251 0.02538842 5.935681e-24)
(-0.1481301 0.01925341 6.742803e-24)
(-0.1386002 0.03822527 6.005942e-24)
(-0.1466238 0.03217445 7.496843e-21)
(-0.1362312 0.05150662 -6.341433e-24)
(-0.144821 0.04547239 5.795337e-25)
(-0.132948 0.06560337 -2.328768e-21)
(-0.1425164 0.05947206 -4.814206e-24)
(-0.1288526 0.08062886 2.387285e-20)
(-0.1393527 0.07468147 -1.054692e-20)
(-0.1351755 0.09103898 1.515814e-23)
(-0.1227744 0.09750297 3.538778e-21)
(-0.1561106 0.01294455 2.132712e-23)
(-0.1639563 0.006488438 6.985703e-24)
(-0.1546628 0.02593929 1.355291e-23)
(-0.1624665 0.0193602 4.948969e-21)
(-0.1532042 0.03919053 7.334183e-24)
(-0.1611982 0.03256847 -7.667247e-25)
(-0.1515101 0.05302452 1.981017e-21)
(-0.1599382 0.04627994 2.804883e-25)
(-0.1492682 0.06783197 2.279565e-21)
(-0.1585185 0.06088541 9.612373e-24)
(-0.1463499 0.08396969 6.053813e-21)
(-0.1565697 0.07696927 -2.297772e-24)
(-0.1539899 0.0956192 4.770356e-24)
(-0.1415702 0.1030679 1.981931e-20)
(-0.1705213 0.0128054 -7.418083e-24)
(-0.1784168 0.00635912 -8.574148e-24)
(-0.1693326 0.02583312 4.782897e-22)
(-0.1770233 0.01906626 2.245023e-21)
(-0.1683716 0.03935179 -7.88217e-22)
(-0.1761691 0.03202011 -6.084934e-21)
(-0.1675661 0.05362368 7.774146e-24)
(-0.1756686 0.04595787 -1.684544e-23)
(-0.1667477 0.06926141 4.292595e-21)
(-0.1756394 0.06105253 1.475714e-20)
(-0.1653147 0.08699354 1.035079e-24)
(-0.175803 0.0780202 -6.172341e-24)
(-0.1754606 0.09815422 2.903067e-22)
(-0.1633622 0.1074301 -4.715989e-22)
(-0.1848632 0.01239 -2.486493e-23)
(-0.1925392 0.005962673 8.615177e-21)
(-0.184044 0.02496604 2.922836e-21)
(-0.1914184 0.01811658 -1.620534e-23)
(-0.1839496 0.03827501 -2.424634e-23)
(-0.1912035 0.03056589 -7.640978e-24)
(-0.1843588 0.05277623 -7.505872e-24)
(-0.1919095 0.04401622 -8.749379e-21)
(-0.1854163 0.06881854 5.171308e-21)
(-0.193493 0.05938326 -9.360854e-24)
(-0.1865226 0.08734463 2.751669e-22)
(-0.1961022 0.0770554 -5.361507e-21)
(-0.1985031 0.09888291 -7.627311e-19)
(-0.1861699 0.1094393 5.298443e-19)
(-0.1987127 0.01144276 2.69113e-22)
(-0.205616 0.005297549 6.950136e-25)
(-0.1982842 0.02325596 5.835473e-26)
(-0.2050655 0.01623465 -4.133383e-26)
(-0.1992609 0.03575726 -2.467211e-25)
(-0.2056692 0.02786958 -1.77671e-25)
(-0.2015476 0.04998962 -1.887059e-23)
(-0.2079963 0.04057915 -2.943011e-20)
(-0.2045989 0.06633638 1.328333e-22)
(-0.2117702 0.05553672 2.349536e-20)
(-0.2077107 0.08578397 1.763577e-19)
(-0.2165884 0.07486362 -5.395724e-19)
(-0.2199699 0.1004419 7.34477e-19)
(-0.2084832 0.1098046 1.143254e-18)
(-0.2110874 0.009891032 9.875697e-24)
(-0.2167779 0.00430979 -3.683518e-20)
(-0.2116009 0.02040774 -1.091229e-21)
(-0.2171358 0.01353579 -9.86172e-26)
(-0.2136319 0.03185679 2.101515e-23)
(-0.2189006 0.02365462 -4.581016e-25)
(-0.2178138 0.04500644 3.118213e-20)
(-0.2229078 0.03550516 -4.946894e-23)
(-0.2229029 0.06140163 1.123717e-18)
(-0.2288883 0.05079816 1.272879e-18)
(-0.2262922 0.08241865 1.340483e-18)
(-0.2342535 0.07307389 -2.168098e-18)
(-0.2359941 0.1047313 -3.155962e-19)
(-0.2264468 0.1078852 1.363573e-17)
(-0.2213013 0.007718773 1.054321e-23)
(-0.2251167 0.0030446 1.054465e-23)
(-0.2230243 0.01647932 -2.822169e-25)
(-0.2268241 0.009936054 -1.049868e-25)
(-0.2266874 0.0262194 -7.063308e-21)
(-0.2298667 0.01805477 8.289303e-23)
(-0.2317676 0.03845827 -1.398562e-18)
(-0.2359052 0.02923432 2.055093e-19)
(-0.2373878 0.05509713 -1.025606e-17)
(-0.2417551 0.04724785 -7.459621e-20)
(-0.2403111 0.07824867 1.174598e-17)
(-0.2467148 0.07392664 4.805533e-18)
(-0.2474522 0.1106975 -3.079679e-18)
(-0.2384821 0.1064591 1.731695e-18)
(-0.2286153 0.004977145 -1.047789e-25)
(-0.2300677 0.001545236 0)
(-0.2316513 0.01119033 -2.906565e-21)
(-0.2331379 0.005424031 -3.64212e-22)
(-0.2365407 0.01867621 -4.609521e-21)
(-0.2374134 0.01145857 -6.693763e-19)
(-0.2420579 0.03077365 -2.684931e-19)
(-0.2443353 0.02350271 -1.726714e-18)
(-0.2457105 0.04865225 4.228423e-19)
(-0.2488965 0.04574021 -2.028587e-19)
(-0.2485571 0.07249907 6.497919e-17)
(-0.2511859 0.07821621 -7.098297e-18)
(-0.2538188 0.1185588 1.708157e-17)
(-0.2450381 0.1016869 2.690224e-17)
(-0.2323389 0.001731357 -3.620348e-22)
(-0.2312031 -0.0002655533 1.119612e-23)
(-0.2362935 0.004528462 4.495911e-19)
(-0.2353343 0.0003339599 1.893134e-18)
(-0.2415092 0.01021189 -2.071523e-20)
(-0.240284 0.005342429 2.090581e-18)
(-0.246268 0.02293965 -4.529719e-18)
(-0.2460229 0.01992616 -7.636888e-18)
(-0.2483552 0.04218601 2.672813e-17)
(-0.2497053 0.04664394 -5.823064e-18)
(-0.248024 0.06675868 7.745586e-18)
(-0.2504529 0.08373088 -1.643881e-17)
(-0.2489733 0.1293907 -2.033924e-18)
(-0.248279 0.09716755 1.592057e-17)
(-0.2318066 -0.002277715 -1.715635e-21)
(-0.2278668 -0.002310383 -5.23945e-20)
(-0.2363052 -0.002673064 -3.283956e-20)
(-0.2328829 -0.004430556 -1.88259e-18)
(-0.2402956 0.002765082 -7.559822e-19)
(-0.2375761 0.001773738 2.208142e-18)
(-0.2438353 0.01535839 -3.443998e-18)
(-0.2402937 0.0200431 -8.616876e-19)
(-0.2442259 0.03592009 -3.14126e-18)
(-0.2447556 0.05017029 1.56474e-17)
(-0.2418919 0.06022161 -1.462712e-17)
(-0.2422314 0.09156448 5.191996e-18)
(-0.2395429 0.1404081 -1.787544e-17)
(-0.2363833 0.08830927 1.895525e-18)
(-0.2263171 -0.006373839 9.829883e-20)
(-0.2200458 -0.004062713 -1.869564e-19)
(-0.2304925 -0.008580077 1.000514e-18)
(-0.2250241 -0.007432761 -2.351582e-18)
(-0.2333044 -0.003694444 3.832232e-18)
(-0.2279805 0.001015752 -2.057224e-19)
(-0.2346871 0.009983025 -2.05749e-17)
(-0.2306501 0.02254691 3.142319e-18)
(-0.2346152 0.0316722 2.682404e-17)
(-0.2311546 0.05749425 -4.700611e-20)
(-0.2315749 0.05635959 9.232657e-17)
(-0.2269091 0.1029528 9.035381e-19)
(-0.2303344 0.1532266 2.054586e-17)
(-0.2228285 0.08639203 -2.306009e-17)
(-0.2159229 -0.009880114 -1.53504e-19)
(-0.2076095 -0.004905926 -1.859599e-18)
(-0.2191295 -0.01245328 1.108209e-18)
(-0.2119029 -0.00808268 -9.431461e-19)
(-0.2205755 -0.006078462 5.714286e-18)
(-0.2140869 0.002806681 1.208444e-19)
(-0.2201662 0.007927143 2.85679e-19)
(-0.2149081 0.02773287 -4.944816e-18)
(-0.2170516 0.02787308 -1.302699e-17)
(-0.2129711 0.06624365 5.571387e-18)
(-0.2113885 0.05397776 8.432514e-18)
(-0.209477 0.1155909 -4.570197e-18)
(-0.2032056 0.1720107 -3.096865e-18)
(-0.2074756 0.08566786 -7.430706e-17)
(-0.2004148 -0.01260818 2.024726e-19)
(-0.1900968 -0.00481238 -6.379281e-19)
(-0.2025581 -0.01579044 -1.002887e-19)
(-0.1933478 -0.006558789 2.04834e-18)
(-0.2025949 -0.009563049 -9.66704e-18)
(-0.1943954 0.007102197 -8.86177e-19)
(-0.2004436 0.005615931 -2.048955e-18)
(-0.1942902 0.03532371 -2.290385e-18)
(-0.1958826 0.02754628 -2.773268e-17)
(-0.1913964 0.07713453 1.791711e-17)
(-0.1887231 0.05234708 4.823576e-17)
(-0.1860058 0.1297689 -2.523054e-17)
(-0.1776035 0.1897535 2.076678e-17)
(-0.1796039 0.07969711 -2.562753e-16)
(-0.1795867 -0.01388834 5.996589e-19)
(-0.1668814 -0.003750756 -8.015067e-19)
(-0.1811729 -0.01705712 -9.957532e-18)
(-0.1689285 -0.003496284 -7.108149e-19)
(-0.1801764 -0.009795822 -1.150727e-18)
(-0.1724407 0.01239892 9.724131e-18)
(-0.1766248 0.006500271 -2.324396e-17)
(-0.169797 0.04436833 -3.000211e-18)
(-0.1705009 0.02815536 2.94858e-17)
(-0.1648891 0.08943735 3.984464e-19)
(-0.1626253 0.05257399 -1.870593e-17)
(-0.1582078 0.1442489 -8.372198e-18)
(-0.1521738 0.2062085 -8.54498e-19)
(-0.1525393 0.08046903 -4.03915e-17)
(-0.1534418 -0.01372262 -8.571645e-19)
(-0.1389792 -0.002195553 4.455487e-19)
(-0.1542621 -0.01716023 1.266749e-18)
(-0.1401871 9.40291e-05 6.265533e-19)
(-0.1541397 -0.01069699 -3.510185e-17)
(-0.1401053 0.0189931 6.362086e-19)
(-0.1509226 0.006919751 8.760264e-18)
(-0.1388229 0.05400915 3.268776e-20)
(-0.1454786 0.03081235 1.084632e-16)
(-0.1329629 0.1017157 1.92472e-18)
(-0.1392827 0.05785618 2.406172e-16)
(-0.1263318 0.1583019 9.198508e-19)
(-0.1391581 0.218163 5.306629e-17)
(-0.128799 0.08830264 1.313485e-16)
(-0.1232249 -0.01292247 -9.548041e-20)
(-0.1071821 -0.0006843913 5.160672e-20)
(-0.1231547 -0.01617555 -6.792543e-18)
(-0.1078866 0.003687399 6.357149e-19)
(-0.1215646 -0.008396236 4.918313e-18)
(-0.1076958 0.0242258 -1.598677e-19)
(-0.1179202 0.008186427 -1.05558e-17)
(-0.1059929 0.06126164 5.040267e-19)
(-0.1119201 0.0309143 6.791708e-17)
(-0.1017579 0.1105893 3.697519e-19)
(-0.1052442 0.05754685 8.607094e-17)
(-0.09598949 0.1687676 3.823824e-18)
(-0.09547099 0.2344795 8.95773e-19)
(-0.1008905 0.08869646 -1.259703e-16)
(-0.0899842 -0.01162594 2.396905e-19)
(-0.07312902 0.000672986 2.56813e-19)
(-0.08956444 -0.01435453 -2.852548e-19)
(-0.07330787 0.00677372 1.124922e-18)
(-0.08798635 -0.006224502 -2.05227e-18)
(-0.07315175 0.02842622 -4.449211e-19)
(-0.08462437 0.009945004 -6.692414e-18)
(-0.07161043 0.06712041 -1.354528e-18)
(-0.07933973 0.03202308 -2.252161e-17)
(-0.06860536 0.1180001 -5.670961e-18)
(-0.07241173 0.05851288 -4.459933e-18)
(-0.06416413 0.1777269 -1.528025e-19)
(-0.0583355 0.2454201 -8.244398e-18)
(-0.06527288 0.08977789 5.371542e-17)
(-0.05476604 -0.01094234 -1.456438e-19)
(-0.03680776 0.001595106 8.564237e-20)