/*--------------------------------*- C++ -*----------------------------------*\
| =========                 |                                                 |
| \\      /  F ield         | OpenFOAM: The Open Source CFD Toolbox           |
|  \\    /   O peration     | Version:  2206                                  |
|   \\  /    A nd           | Website:  www.openfoam.com                      |
|    \\/     M anipulation  |                                                 |
\*---------------------------------------------------------------------------*/
FoamFile
{
    version     2.0;
    format      ascii;
    arch        "LSB;label=32;scalar=64";
    class       volScalarField;
    location    "1.8";
    object      k.b;
}
// * * * * * * * * * * * * * * * * * * * * * * * * * * * * * * * * * * * * * //

dimensions      [0 2 -2 0 0 0 0];

internalField   nonuniform List<scalar> 
13078
(
8.825404e-14
8.846362e-11
1.075512e-10
1.08343e-10
1.091092e-10
1.100103e-10
1.110618e-10
9.127623e-14
7.849438e-11
1.070017e-10
1.082741e-10
1.090784e-10
1.099868e-10
1.110382e-10
1.224432e-13
7.816263e-11
1.068938e-10
1.082119e-10
1.090367e-10
1.099555e-10
1.110099e-10
1.036666e-13
7.839596e-11
1.068606e-10
1.081638e-10
1.089977e-10
1.099234e-10
1.109801e-10
9.934918e-14
7.848112e-11
1.068414e-10
1.08141e-10
1.089659e-10
1.098931e-10
1.109509e-10
1.0252e-13
7.852915e-11
1.068343e-10
1.081274e-10
1.089527e-10
1.098673e-10
1.10923e-10
1.084272e-13
7.853889e-11
1.068244e-10
1.081169e-10
1.089438e-10
1.098582e-10
1.108984e-10
1.16403e-13
7.852504e-11
1.068142e-10
1.081109e-10
1.089385e-10
1.098522e-10
1.108912e-10
1.264852e-13
7.850896e-11
1.068158e-10
1.081092e-10
1.089354e-10
1.098479e-10
1.108861e-10
1.389013e-13
7.847966e-11
1.068168e-10
1.081086e-10
1.089334e-10
1.098447e-10
1.10882e-10
1.541308e-13
7.844134e-11
1.068172e-10
1.081083e-10
1.08932e-10
1.098422e-10
1.108784e-10
1.728093e-13
7.839592e-11
1.068169e-10
1.081081e-10
1.089308e-10
1.098399e-10
1.108753e-10
1.957725e-13
7.834502e-11
1.06816e-10
1.081078e-10
1.089297e-10
1.098379e-10
1.108723e-10
2.241302e-13
7.828897e-11
1.068147e-10
1.081071e-10
1.089283e-10
1.098359e-10
1.108693e-10
2.593126e-13
7.822857e-11
1.068123e-10
1.08102e-10
1.089206e-10
1.098331e-10
1.108663e-10
3.031481e-13
7.816395e-11
1.068092e-10
1.080955e-10
1.089144e-10
1.098305e-10
1.108631e-10
3.579878e-13
7.809567e-11
1.068067e-10
1.08094e-10
1.089123e-10
1.098281e-10
1.108598e-10
4.268522e-13
7.802358e-11
1.06804e-10
1.080926e-10
1.089104e-10
1.098256e-10
1.108563e-10
5.135909e-13
7.794731e-11
1.068008e-10
1.080912e-10
1.08908e-10
1.098223e-10
1.108527e-10
6.231331e-13
7.786722e-11
1.067973e-10
1.080891e-10
1.088991e-10
1.098094e-10
1.10848e-10
7.61747e-13
7.778285e-11
1.067936e-10
1.080868e-10
1.088883e-10
1.097988e-10
1.108431e-10
9.374542e-13
7.769424e-11
1.067897e-10
1.080849e-10
1.088847e-10
1.097946e-10
1.108386e-10
1.160455e-12
7.760092e-11
1.067854e-10
1.080827e-10
1.088815e-10
1.097899e-10
1.108329e-10
1.44372e-12
7.750275e-11
1.067808e-10
1.080804e-10
1.088774e-10
1.09776e-10
1.108127e-10
1.803661e-12
7.739925e-11
1.06776e-10
1.080779e-10
1.088729e-10
1.097592e-10
1.107961e-10
2.260977e-12
7.728996e-11
1.067706e-10
1.080752e-10
1.088688e-10
1.097524e-10
1.107883e-10
2.841628e-12
7.717642e-11
1.067649e-10
1.080723e-10
1.088644e-10
1.09746e-10
1.107795e-10
3.577787e-12
7.704375e-11
1.067581e-10
1.080692e-10
1.088594e-10
1.097385e-10
1.107572e-10
4.509566e-12
7.692705e-11
1.067517e-10
1.080658e-10
1.08854e-10
1.097301e-10
1.10731e-10
5.685721e-12
7.659016e-11
1.067366e-10
1.08062e-10
1.088483e-10
1.09722e-10
1.107182e-10
7.181859e-12
7.622988e-11
1.067318e-10
1.080581e-10
1.08842e-10
1.097131e-10
1.107056e-10
9.046118e-12
7.563165e-11
1.06721e-10
1.080531e-10
1.088354e-10
1.097034e-10
1.106915e-10
1.136762e-11
7.487388e-11
1.06665e-10
1.080373e-10
1.088269e-10
1.096923e-10
1.106772e-10
1.423199e-11
7.46099e-11
1.066227e-10
1.08023e-10
1.088164e-10
1.096793e-10
1.106605e-10
1.773458e-11
7.433736e-11
1.065995e-10
1.080037e-10
1.087819e-10
1.096595e-10
1.106391e-10
2.196624e-11
7.403847e-11
1.065667e-10
1.079793e-10
1.087395e-10
1.096062e-10
1.106075e-10
2.700279e-11
7.371596e-11
1.065224e-10
1.079466e-10
1.086984e-10
1.095536e-10
1.105692e-10
3.2886e-11
7.336706e-11
1.064632e-10
1.079088e-10
1.086584e-10
1.094989e-10
1.104958e-10
3.96011e-11
7.299629e-11
1.063925e-10
1.078669e-10
1.086158e-10
1.094478e-10
1.104215e-10
4.710146e-11
7.232021e-11
1.063048e-10
1.078118e-10
1.085443e-10
1.093608e-10
1.103085e-10
5.533029e-11
7.108915e-11
1.06186e-10
1.07704e-10
1.08403e-10
1.091978e-10
1.101552e-10
6.369708e-11
6.986317e-11
1.059403e-10
1.074602e-10
1.081559e-10
1.089272e-10
1.097877e-10
7.177066e-11
6.926125e-11
1.056216e-10
1.071336e-10
1.077679e-10
1.084981e-10
1.092922e-10
7.86522e-11
6.863756e-11
1.052821e-10
1.068188e-10
1.073249e-10
1.078985e-10
1.088149e-10
8.352215e-11
6.774774e-11
1.049816e-10
1.064192e-10
1.068621e-10
1.074089e-10
1.081402e-10
8.603285e-11
6.639306e-11
1.046418e-10
1.058812e-10
1.063189e-10
1.068336e-10
1.074715e-10
8.552006e-11
6.48611e-11
1.041587e-10
1.053969e-10
1.056342e-10
1.061007e-10
1.067182e-10
8.107174e-11
6.378413e-11
1.036048e-10
1.048952e-10
1.050067e-10
1.05372e-10
1.058393e-10
7.311547e-11
6.265999e-11
1.030569e-10
1.043129e-10
1.04464e-10
1.047925e-10
1.051981e-10
6.248804e-11
6.161334e-11
1.025565e-10
1.038101e-10
1.039179e-10
1.041656e-10
1.046413e-10
5.011358e-11
5.998741e-11
1.021145e-10
1.034237e-10
1.035114e-10
1.037059e-10
1.040459e-10
3.689061e-11
5.770805e-11
1.016011e-10
1.030104e-10
1.031395e-10
1.033845e-10
1.036919e-10
2.420247e-11
5.651488e-11
1.011248e-10
1.027987e-10
1.029773e-10
1.032917e-10
1.034894e-10
1.34098e-11
5.578819e-11
1.008199e-10
1.025755e-10
1.028188e-10
1.031309e-10
1.034124e-10
5.530009e-12
5.528938e-11
1.006408e-10
1.024513e-10
1.027488e-10
1.03075e-10
1.034499e-10
1.107036e-12
5.498957e-11
1.005499e-10
1.023993e-10
1.027352e-10
1.030945e-10
1.035177e-10
1.055981e-12
5.506721e-11
1.005494e-10
1.023739e-10
1.026982e-10
1.03056e-10
1.034899e-10
5.460291e-12
5.549916e-11
1.00652e-10
1.023982e-10
1.026774e-10
1.02996e-10
1.033689e-10
1.362493e-11
5.611085e-11
1.008476e-10
1.025069e-10
1.027276e-10
1.030242e-10
1.032906e-10
2.506358e-11
5.693209e-11
1.011577e-10
1.027094e-10
1.028586e-10
1.031459e-10
1.033089e-10
3.860859e-11
5.819024e-11
1.016266e-10
1.029076e-10
1.030122e-10
1.032407e-10
1.03526e-10
5.269496e-11
6.049724e-11
1.021569e-10
1.033413e-10
1.033965e-10
1.035656e-10
1.038836e-10
6.59286e-11
6.213133e-11
1.025926e-10
1.03722e-10
1.038028e-10
1.040286e-10
1.04485e-10
7.708978e-11
6.315791e-11
1.030807e-10
1.042198e-10
1.043475e-10
1.046639e-10
1.050672e-10
8.510115e-11
6.421634e-11
1.036191e-10
1.048073e-10
1.049041e-10
1.052836e-10
1.057448e-10
8.901822e-11
6.517261e-11
1.041748e-10
1.053353e-10
1.055572e-10
1.060264e-10
1.066302e-10
8.891756e-11
6.65876e-11
1.046695e-10
1.058524e-10
1.062634e-10
1.067672e-10
1.073536e-10
8.55716e-11
6.789439e-11
1.050152e-10
1.06422e-10
1.068281e-10
1.073497e-10
1.080365e-10
7.984967e-11
6.877554e-11
1.053155e-10
1.068282e-10
1.07332e-10
1.078506e-10
1.087356e-10
7.232447e-11
6.941363e-11
1.056559e-10
1.071418e-10
1.077715e-10
1.084661e-10
1.092074e-10
6.38759e-11
7.003314e-11
1.059756e-10
1.074605e-10
1.081377e-10
1.088991e-10
1.097212e-10
5.527018e-11
7.107999e-11
1.06211e-10
1.077016e-10
1.083885e-10
1.091771e-10
1.101238e-10
4.697715e-11
7.20905e-11
1.06337e-10
1.078133e-10
1.085401e-10
1.093561e-10
1.10296e-10
3.943042e-11
7.269874e-11
1.064226e-10
1.078764e-10
1.086239e-10
1.094487e-10
1.104159e-10
3.269545e-11
7.307602e-11
1.064922e-10
1.079217e-10
1.086721e-10
1.095057e-10
1.104977e-10
2.68112e-11
7.357014e-11
1.065498e-10
1.079598e-10
1.08714e-10
1.095678e-10
1.105777e-10
2.17894e-11
7.399009e-11
1.065851e-10
1.079848e-10
1.087502e-10
1.096268e-10
1.106142e-10
1.757236e-11
7.434052e-11
1.066098e-10
1.080043e-10
1.087845e-10
1.096612e-10
1.106395e-10
1.40977e-11
7.465324e-11
1.06631e-10
1.080218e-10
1.088149e-10
1.096777e-10
1.106586e-10
1.126045e-11
7.490468e-11
1.066707e-10
1.080358e-10
1.088248e-10
1.096901e-10
1.106748e-10
8.96088e-12
7.565671e-11
1.06725e-10
1.080517e-10
1.088335e-10
1.097013e-10
1.106894e-10
7.116334e-12
7.624765e-11
1.067346e-10
1.080568e-10
1.088404e-10
1.097114e-10
1.107038e-10
5.636165e-12
7.660207e-11
1.067384e-10
1.080608e-10
1.088469e-10
1.097205e-10
1.107166e-10
4.474466e-12
7.693533e-11
1.067529e-10
1.080648e-10
1.088529e-10
1.097288e-10
1.107296e-10
3.555092e-12
7.7049e-11
1.067588e-10
1.080683e-10
1.088585e-10
1.097375e-10
1.10756e-10
2.828799e-12
7.717955e-11
1.067652e-10
1.080716e-10
1.088635e-10
1.097451e-10
1.107787e-10
2.255772e-12
7.729158e-11
1.067707e-10
1.080746e-10
1.088681e-10
1.097516e-10
1.107876e-10
1.804184e-12
7.73999e-11
1.06776e-10
1.080774e-10
1.088723e-10
1.097586e-10
1.107955e-10
1.448443e-12
7.750278e-11
1.067808e-10
1.080799e-10
1.088769e-10
1.097755e-10
1.108122e-10
1.168221e-12
7.760056e-11
1.067853e-10
1.080823e-10
1.088811e-10
1.097894e-10
1.108325e-10
9.473672e-13
7.769375e-11
1.067896e-10
1.080846e-10
1.088843e-10
1.097943e-10
1.108382e-10
7.730653e-13
7.778239e-11
1.067935e-10
1.080865e-10
1.088881e-10
1.097986e-10
1.108428e-10
6.352952e-13
7.786698e-11
1.067973e-10
1.08089e-10
1.08899e-10
1.098092e-10
1.108478e-10
5.26183e-13
7.794739e-11
1.068009e-10
1.080912e-10
1.08908e-10
1.098223e-10
1.108527e-10
4.395717e-13
7.802419e-11
1.068042e-10
1.080927e-10
1.089104e-10
1.098256e-10
1.108563e-10
3.706208e-13
7.809697e-11
1.068071e-10
1.080941e-10
1.089124e-10
1.098281e-10
1.108597e-10
3.155509e-13
7.816616e-11
1.068096e-10
1.080957e-10
1.089145e-10
1.098305e-10
1.10863e-10
2.713868e-13
7.823191e-11
1.06813e-10
1.081023e-10
1.089207e-10
1.098331e-10
1.108663e-10
2.358106e-13
7.829377e-11
1.068157e-10
1.081075e-10
1.089285e-10
1.098359e-10
1.108692e-10
2.070289e-13
7.835172e-11
1.068173e-10
1.081083e-10
1.0893e-10
1.098379e-10
1.108721e-10
1.836529e-13
7.840508e-11
1.068185e-10
1.081087e-10
1.08931e-10
1.098398e-10
1.108749e-10
1.646589e-13
7.845391e-11
1.068193e-10
1.08109e-10
1.08932e-10
1.098417e-10
1.108777e-10
1.491565e-13
7.849722e-11
1.068194e-10
1.081092e-10
1.089331e-10
1.098438e-10
1.108808e-10
1.364109e-13
7.85336e-11
1.06819e-10
1.081094e-10
1.089344e-10
1.098462e-10
1.108841e-10
1.260007e-13
7.855978e-11
1.068176e-10
1.081101e-10
1.089363e-10
1.098493e-10
1.108882e-10
1.176693e-13
7.858809e-11
1.068273e-10
1.081142e-10
1.089396e-10
1.098536e-10
1.108941e-10
1.113308e-13
7.859808e-11
1.068347e-10
1.081209e-10
1.089451e-10
1.098602e-10
1.109171e-10
1.073987e-13
7.857528e-11
1.068352e-10
1.081278e-10
1.089536e-10
1.09883e-10
1.109432e-10
1.069016e-13
7.852699e-11
1.068418e-10
1.081407e-10
1.089792e-10
1.0991e-10
1.109708e-10
1.142747e-13
7.84118e-11
1.068595e-10
1.081752e-10
1.090119e-10
1.099398e-10
1.110001e-10
1.358114e-13
7.836091e-11
1.069281e-10
1.082236e-10
1.090502e-10
1.099719e-10
1.1103e-10
1.070218e-13
7.98005e-11
1.07012e-10
1.082871e-10
1.090952e-10
1.100054e-10
1.110598e-10
1.123125e-10
1.139005e-10
1.16045e-10
1.18127e-10
1.219001e-10
1.289615e-10
1.465469e-09
1.122855e-10
1.138654e-10
1.159982e-10
1.180713e-10
1.218297e-10
1.282437e-10
5.271531e-10
1.122558e-10
1.138296e-10
1.159535e-10
1.18793e-10
1.217676e-10
1.28141e-10
5.270999e-10
1.122252e-10
1.137932e-10
1.159054e-10
1.179587e-10
1.216914e-10
1.280383e-10
5.242774e-10
1.121951e-10
1.137567e-10
1.158597e-10
1.17898e-10
1.216213e-10
1.279358e-10
5.209812e-10
1.121655e-10
1.137202e-10
1.158129e-10
1.178407e-10
1.215523e-10
1.27834e-10
5.172936e-10
1.121368e-10
1.136842e-10
1.157665e-10
1.177855e-10
1.215331e-10
1.277337e-10
5.132347e-10
1.121108e-10
1.136487e-10
1.157206e-10
1.177315e-10
1.215155e-10
1.276347e-10
5.087307e-10
1.121038e-10
1.136162e-10
1.15677e-10
1.176764e-10
1.214606e-10
1.275441e-10
5.015954e-10
1.120986e-10
1.136077e-10
1.156364e-10
1.176218e-10
1.214064e-10
1.274541e-10
4.885274e-10
1.120941e-10
1.136014e-10
1.156256e-10
1.175689e-10
1.213525e-10
1.273642e-10
4.734821e-10
1.120897e-10
1.135952e-10
1.156174e-10
1.175573e-10
1.212984e-10
1.272736e-10
4.48691e-10
1.120855e-10
1.135891e-10
1.15609e-10
1.17547e-10
1.21289e-10
1.2718e-10
4.225896e-10
1.120813e-10
1.135829e-10
1.156003e-10
1.175363e-10
1.212786e-10
1.271675e-10
4.051375e-10
1.12077e-10
1.135764e-10
1.155914e-10
1.175252e-10
1.212675e-10
1.271232e-10
3.445381e-10
1.120725e-10
1.135697e-10
1.155821e-10
1.175136e-10
1.212556e-10
1.270841e-10
3.04705e-10
1.120679e-10
1.135627e-10
1.155725e-10
1.175011e-10
1.212384e-10
1.270416e-10
2.779435e-10
1.120631e-10
1.135556e-10
1.155622e-10
1.174825e-10
1.210731e-10
1.269962e-10
2.518137e-10
1.12058e-10
1.135484e-10
1.155517e-10
1.174689e-10
1.21051e-10
1.269522e-10
2.308342e-10
1.120526e-10
1.135409e-10
1.155407e-10
1.174548e-10
1.210329e-10
1.269047e-10
2.09469e-10
1.12047e-10
1.13533e-10
1.155291e-10
1.174399e-10
1.210139e-10
1.268539e-10
1.886774e-10
1.120409e-10
1.135245e-10
1.155172e-10
1.174241e-10
1.20994e-10
1.268079e-10
1.859445e-10
1.120345e-10
1.135155e-10
1.155034e-10
1.17408e-10
1.209696e-10
1.267714e-10
4.744594e-10
1.120261e-10
1.135059e-10
1.154917e-10
1.181115e-10
1.208211e-10
1.267203e-10
5.004073e-10
1.120175e-10
1.134957e-10
1.154746e-10
1.173785e-10
1.207372e-10
1.266833e-10
5.274208e-10
1.120094e-10
1.13485e-10
1.154599e-10
1.173518e-10
1.207077e-10
1.266492e-10
6.176249e-10
1.11999e-10
1.134727e-10
1.154431e-10
1.173305e-10
1.206765e-10
1.266009e-10
5.953337e-10
1.119666e-10
1.134587e-10
1.154236e-10
1.17308e-10
1.206343e-10
1.262431e-10
5.706326e-10
1.119403e-10
1.130464e-10
1.148726e-10
1.172806e-10
1.205956e-10
1.261032e-10
5.339784e-10
1.119236e-10
1.130277e-10
1.148518e-10
1.172565e-10
1.205597e-10
1.260409e-10
4.148309e-10
1.118801e-10
1.129721e-10
1.148317e-10
1.172294e-10
1.205214e-10
1.259714e-10
6.813704e-10
1.118479e-10
1.129292e-10
1.148103e-10
1.172002e-10
1.204802e-10
1.257714e-10
6.35954e-10
1.118258e-10
1.1284e-10
1.14783e-10
1.17169e-10
1.204369e-10
1.256348e-10
5.149509e-10
1.118059e-10
1.128102e-10
1.14698e-10
1.171364e-10
1.203923e-10
1.254892e-10
3.584025e-10
1.117809e-10
1.127748e-10
1.145908e-10
1.171009e-10
1.20347e-10
1.252562e-10
1.928334e-10
1.117481e-10
1.12732e-10
1.144864e-10
1.170511e-10
1.203075e-10
1.251706e-10
2.48366e-10
1.117137e-10
1.126827e-10
1.144508e-10
1.168973e-10
1.202752e-10
1.250533e-10
2.101055e-10
1.116802e-10
1.126373e-10
1.144207e-10
1.167591e-10
1.202646e-10
1.251275e-10
2.548098e-10
1.116414e-10
1.126017e-10
1.144179e-10
1.167574e-10
1.20265e-10
1.253248e-10
1.439352e-10
1.115611e-10
1.125571e-10
1.144573e-10
1.168802e-10
1.200563e-10
1.250456e-10
1.653468e-10
1.11341e-10
1.124238e-10
1.144061e-10
1.16786e-10
1.197227e-10
1.239525e-10
1.53977e-10
1.109469e-10
1.120907e-10
1.139063e-10
1.163214e-10
1.192539e-10
1.225886e-10
1.526363e-10
1.105159e-10
1.11705e-10
1.134749e-10
1.157308e-10
1.184887e-10
1.216182e-10
1.702777e-10
1.100959e-10
1.112793e-10
1.131616e-10
1.152612e-10
1.176873e-10
1.211679e-10
1.580739e-10
1.093978e-10
1.106753e-10
1.124936e-10
1.14954e-10
1.167109e-10
1.206121e-10
1.472434e-10
1.085567e-10
1.100965e-10
1.122179e-10
1.140813e-10
1.162401e-10
1.194187e-10
2.423558e-10
1.077697e-10
1.093223e-10
1.114985e-10
1.13694e-10
1.152861e-10
1.189112e-10
2.028428e-10
1.071118e-10
1.085909e-10
1.110508e-10
1.128608e-10
1.151991e-10
1.177158e-10
1.385473e-10
1.061817e-10
1.078693e-10
1.101702e-10
1.121774e-10
1.145519e-10
1.178857e-10
1.743737e-10
1.05539e-10
1.070617e-10
1.09526e-10
1.115234e-10
1.13833e-10
1.167589e-10
1.313436e-10
1.049443e-10
1.063818e-10
1.086278e-10
1.107747e-10
1.131967e-10
1.159889e-10
1.243095e-10
1.046142e-10
1.059541e-10
1.081825e-10
1.100098e-10
1.121768e-10
1.151335e-10
1.343056e-10
1.044177e-10
1.055911e-10
1.078506e-10
1.094938e-10
1.116243e-10
1.164791e-10
3.02791e-10
1.042802e-10
1.054553e-10
1.075338e-10
1.093005e-10
1.109674e-10
1.133216e-10
1.393739e-10
1.042839e-10
1.053852e-10
1.075868e-10
1.090677e-10
1.106413e-10
1.113889e-10
1.133311e-10
1.043744e-10
1.054231e-10
1.075582e-10
1.09093e-10
1.10104e-10
1.108303e-10
1.043502e-10
1.054255e-10
1.076536e-10
1.092322e-10
1.103093e-10
1.111164e-10
1.042142e-10
1.052607e-10
1.074581e-10
1.090154e-10
1.101081e-10
1.108484e-10
1.041333e-10
1.051722e-10
1.074281e-10
1.088757e-10
1.105983e-10
1.122586e-10
1.176047e-10
1.041992e-10
1.050397e-10
1.074857e-10
1.092146e-10
1.110739e-10
1.142422e-10
1.758139e-10
1.043986e-10
1.052114e-10
1.078081e-10
1.097785e-10
1.118048e-10
1.147608e-10
1.636384e-10
1.047404e-10
1.054861e-10
1.079379e-10
1.100751e-10
1.124271e-10
1.152192e-10
1.399894e-10
1.053532e-10
1.061319e-10
1.08895e-10
1.108754e-10
1.129179e-10
1.160056e-10
1.263494e-10
1.06029e-10
1.06888e-10
1.093959e-10
1.112025e-10
1.138936e-10
1.165953e-10
1.318566e-10
1.069577e-10
1.076835e-10
1.100406e-10
1.122199e-10
1.144026e-10
1.171866e-10
1.378735e-10
1.07653e-10
1.085886e-10
1.108688e-10
1.127729e-10
1.149321e-10
1.177789e-10
2.029658e-10
1.084029e-10
1.092813e-10
1.114417e-10
1.135607e-10
1.154612e-10
1.186288e-10
1.699425e-10
1.092394e-10
1.100937e-10
1.120856e-10
1.140762e-10
1.162304e-10
1.195817e-10
1.733318e-10
1.098455e-10
1.107864e-10
1.126841e-10
1.148498e-10
1.170253e-10
1.205639e-10
1.433874e-10
1.103975e-10
1.113453e-10
1.131665e-10
1.15425e-10
1.179522e-10
1.230903e-10
1.259278e-09
1.108305e-10
1.118163e-10
1.136174e-10
1.159326e-10
1.187607e-10
1.22057e-10
1.530719e-10
1.112681e-10
1.121159e-10
1.1409e-10
1.165035e-10
1.194375e-10
1.230753e-10
2.253002e-10
1.115187e-10
1.125036e-10
1.142975e-10
1.167848e-10
1.198752e-10
1.244315e-10
1.511652e-10
1.116254e-10
1.125701e-10
1.143988e-10
1.167666e-10
1.200781e-10
1.252201e-10
1.560711e-10
1.116757e-10
1.126173e-10
1.143951e-10
1.167096e-10
1.202976e-10
1.252358e-10
3.080019e-10
1.117173e-10
1.12663e-10
1.144213e-10
1.167595e-10
1.202376e-10
1.250049e-10
1.378305e-10
1.11752e-10
1.127119e-10
1.144606e-10
1.169437e-10
1.202721e-10
1.25097e-10
1.638849e-10
1.117806e-10
1.127553e-10
1.145327e-10
1.170724e-10
1.203125e-10
1.25208e-10
2.438495e-10
1.118034e-10
1.127956e-10
1.146362e-10
1.171123e-10
1.203592e-10
1.252873e-10
2.557164e-10
1.118229e-10
1.128133e-10
1.147593e-10
1.171472e-10
1.204071e-10
1.254998e-10
4.903714e-10
1.118453e-10
1.128819e-10
1.147931e-10
1.171808e-10
1.204536e-10
1.25726e-10
6.375971e-10
1.11878e-10
1.129417e-10
1.148184e-10
1.172121e-10
1.204974e-10
1.258183e-10
6.819262e-10
1.11922e-10
1.130147e-10
1.148399e-10
1.17241e-10
1.205382e-10
1.260341e-10
4.713939e-10
1.11939e-10
1.130282e-10
1.148604e-10
1.172676e-10
1.205759e-10
1.260658e-10
4.317818e-10
1.119655e-10
1.134576e-10
1.154225e-10
1.172974e-10
1.206125e-10
1.261326e-10
5.502672e-10
1.119981e-10
1.134717e-10
1.154422e-10
1.173195e-10
1.206562e-10
1.26461e-10
5.855769e-10
1.120087e-10
1.134842e-10
1.154593e-10
1.173414e-10
1.20692e-10
1.266284e-10
6.110989e-10
1.120169e-10
1.134952e-10
1.154749e-10
1.173618e-10
1.207227e-10
1.266718e-10
6.360132e-10
1.120257e-10
1.135055e-10
1.154898e-10
1.173812e-10
1.207551e-10
1.266744e-10
1.723749e-10
1.120341e-10
1.135151e-10
1.155036e-10
1.173998e-10
1.209172e-10
1.267322e-10
1.722917e-10
1.120405e-10
1.135242e-10
1.155167e-10
1.174172e-10
1.20984e-10
1.267815e-10
1.779876e-10
1.120467e-10
1.135328e-10
1.15529e-10
1.174333e-10
1.210044e-10
1.268271e-10
1.80779e-10
1.120525e-10
1.135408e-10
1.155407e-10
1.174488e-10
1.210241e-10
1.268736e-10
1.956041e-10
1.12058e-10
1.135484e-10
1.155518e-10
1.174633e-10
1.210426e-10
1.269207e-10
2.141044e-10
1.12063e-10
1.135556e-10
1.155623e-10
1.174771e-10
1.210602e-10
1.269681e-10
2.362737e-10
1.120679e-10
1.135627e-10
1.155725e-10
1.17494e-10
1.21146e-10
1.270135e-10
2.603801e-10
1.120725e-10
1.135697e-10
1.155822e-10
1.17509e-10
1.212501e-10
1.270577e-10
2.870154e-10
1.120769e-10
1.135763e-10
1.155914e-10
1.175211e-10
1.212621e-10
1.270983e-10
3.158656e-10
1.120811e-10
1.135827e-10
1.156003e-10
1.175328e-10
1.212735e-10
1.271454e-10
3.659219e-10
1.120852e-10
1.135888e-10
1.156088e-10
1.175438e-10
1.212842e-10
1.271732e-10
3.985457e-10
1.120892e-10
1.135947e-10
1.15617e-10
1.175546e-10
1.212946e-10
1.27227e-10
4.233663e-10
1.120932e-10
1.136006e-10
1.15625e-10
1.17565e-10
1.21326e-10
1.273185e-10
4.47862e-10
1.120973e-10
1.136065e-10
1.156354e-10
1.175972e-10
1.213794e-10
1.274093e-10
4.714702e-10
1.121019e-10
1.136145e-10
1.156756e-10
1.176517e-10
1.214334e-10
1.274994e-10
4.87848e-10
1.121081e-10
1.136464e-10
1.157187e-10
1.177067e-10
1.214876e-10
1.275897e-10
4.997806e-10
1.12133e-10
1.136812e-10
1.157641e-10
1.177623e-10
1.215399e-10
1.27684e-10
5.092878e-10
1.121607e-10
1.137165e-10
1.158101e-10
1.178152e-10
1.215197e-10
1.277835e-10
5.13921e-10
1.121894e-10
1.137525e-10
1.158565e-10
1.178717e-10
1.215863e-10
1.278843e-10
5.180183e-10
1.12219e-10
1.137891e-10
1.159034e-10
1.179283e-10
1.216554e-10
1.279864e-10
5.217135e-10
1.122498e-10
1.138261e-10
1.159504e-10
1.179853e-10
1.217249e-10
1.280889e-10
5.250594e-10
1.122809e-10
1.138628e-10
1.159974e-10
1.180419e-10
1.217948e-10
1.281918e-10
5.278392e-10
1.123116e-10
1.139e-10
1.160445e-10
1.180983e-10
1.218648e-10
1.283204e-10
5.374852e-10
2.666044e-07
3.530678e-07
3.541129e-07
3.541146e-07
3.541146e-07
3.541146e-07
3.541146e-07
3.541146e-07
3.541146e-07
3.541146e-07
3.541146e-07
3.541145e-07
3.541145e-07
3.541145e-07
3.541145e-07
3.541145e-07
3.541145e-07
3.541145e-07
2.800116e-07
3.537918e-07
3.541148e-07
3.54115e-07
3.54115e-07
3.54115e-07
3.54115e-07
3.54115e-07
3.54115e-07
3.54115e-07
3.54115e-07
3.54115e-07
3.54115e-07
3.54115e-07
3.54115e-07
3.54115e-07
3.54115e-07
3.54115e-07
2.755686e-07
3.536274e-07
3.541147e-07
3.541151e-07
3.541151e-07
3.541151e-07
3.541151e-07
3.541151e-07
3.541151e-07
3.541151e-07
3.541151e-07
3.541151e-07
3.541151e-07
3.541151e-07
3.541151e-07
3.541151e-07
3.541151e-07
3.541151e-07
2.72283e-07
3.536204e-07
3.541147e-07
3.541151e-07
3.541151e-07
3.541151e-07
3.541151e-07
3.541151e-07
3.541151e-07
3.541151e-07
3.541151e-07
3.541151e-07
3.541151e-07
3.541151e-07
3.541151e-07
3.541151e-07
3.541151e-07
3.541151e-07
2.685492e-07
3.536146e-07
3.541146e-07
3.541151e-07
3.541151e-07
3.541151e-07
3.541151e-07
3.541151e-07
3.541151e-07
3.541151e-07
3.541151e-07
3.541151e-07
3.541151e-07
3.541151e-07
3.541151e-07
3.541151e-07
3.541151e-07
3.541151e-07
2.642925e-07
3.535989e-07
3.541146e-07
3.541151e-07
3.541151e-07
3.541151e-07
3.541151e-07
3.541151e-07
3.541151e-07
3.541151e-07
3.541151e-07
3.541151e-07
3.541151e-07
3.541151e-07
3.541151e-07
3.541151e-07
3.541151e-07
3.541151e-07
2.59594e-07
3.535743e-07
3.541146e-07
3.541151e-07
3.541151e-07
3.541151e-07
3.541151e-07
3.541151e-07
3.541151e-07
3.541151e-07
3.541151e-07
3.541151e-07
3.541151e-07
3.541151e-07
3.541151e-07
3.541151e-07
3.541151e-07
3.541151e-07
2.544546e-07
3.535398e-07
3.541146e-07
3.541151e-07
3.541151e-07
3.541151e-07
3.541151e-07
3.541151e-07
3.541151e-07
3.541151e-07
3.541151e-07
3.541151e-07
3.541151e-07
3.541151e-07
3.541151e-07
3.541151e-07
3.541151e-07
3.541151e-07
2.478904e-07
3.535003e-07
3.541146e-07
3.541151e-07
3.541151e-07
3.541151e-07
3.541151e-07
3.541151e-07
3.541151e-07
3.541151e-07
3.541151e-07
3.541151e-07
3.541151e-07
3.541151e-07
3.541151e-07
3.541151e-07
3.541151e-07
3.541151e-07
2.410094e-07
3.534663e-07
3.541145e-07
3.541151e-07
3.541151e-07
3.541151e-07
3.541151e-07
3.541151e-07
3.541151e-07
3.541151e-07
3.541151e-07
3.541151e-07
3.541151e-07
3.541151e-07
3.541151e-07
3.541151e-07
3.541151e-07
3.541151e-07
2.341338e-07
3.534276e-07
3.541145e-07
3.541151e-07
3.541151e-07
3.541151e-07
3.541151e-07
3.541151e-07
3.541151e-07
3.541151e-07
3.541151e-07
3.541151e-07
3.541151e-07
3.541151e-07
3.541151e-07
3.541151e-07
3.541151e-07
3.541151e-07
2.270162e-07
3.533988e-07
3.541145e-07
3.541151e-07
3.541151e-07
3.541151e-07
3.541151e-07
3.541151e-07
3.541151e-07
3.541151e-07
3.541151e-07
3.541151e-07
3.541151e-07
3.541151e-07
3.541151e-07
3.541151e-07
3.541151e-07
3.541151e-07
2.202196e-07
3.533746e-07
3.541144e-07
3.541151e-07
3.541151e-07
3.541151e-07
3.541151e-07
3.541151e-07
3.541151e-07
3.541151e-07
3.541151e-07
3.541151e-07
3.541151e-07
3.541151e-07
3.541151e-07
3.541151e-07
3.541151e-07
3.541151e-07
2.110412e-07
3.533275e-07
3.541144e-07
3.541151e-07
3.54115e-07
3.541151e-07
3.541151e-07
3.541151e-07
3.541151e-07
3.541151e-07
3.541151e-07
3.541151e-07
3.541151e-07
3.541151e-07
3.541151e-07
3.541151e-07
3.541151e-07
3.541151e-07
1.781036e-07
3.530961e-07
3.541141e-07
3.541151e-07
3.54115e-07
3.541151e-07
3.541151e-07
3.541151e-07
3.541151e-07
3.541151e-07
3.541151e-07
3.541151e-07
3.541151e-07
3.541151e-07
3.541151e-07
3.541151e-07
3.541151e-07
3.541151e-07
1.676239e-07
3.526653e-07
3.541121e-07
3.54115e-07
3.54115e-07
3.541151e-07
3.541151e-07
3.541151e-07
3.541151e-07
3.541151e-07
3.541151e-07
3.541151e-07
3.541151e-07
3.541151e-07
3.541151e-07
3.541151e-07
3.541151e-07
3.541151e-07
1.578497e-07
3.528979e-07
3.541117e-07
3.541146e-07
3.54115e-07
3.541151e-07
3.541151e-07
3.541151e-07
3.541151e-07
3.541151e-07
3.541151e-07
3.541151e-07
3.541151e-07
3.541151e-07
3.541151e-07
3.541151e-07
3.541151e-07
3.541151e-07
1.476711e-07
3.52785e-07
3.54113e-07
3.541142e-07
3.54115e-07
3.541151e-07
3.541151e-07
3.541151e-07
3.541151e-07
3.541151e-07
3.541151e-07
3.541151e-07
3.541151e-07
3.541151e-07
3.541151e-07
3.541151e-07
3.541151e-07
3.541151e-07
1.379851e-07
3.52679e-07
3.541136e-07
3.541147e-07
3.541146e-07
3.54115e-07
3.541151e-07
3.541151e-07
3.541151e-07
3.541151e-07
3.541151e-07
3.541151e-07
3.541151e-07
3.541151e-07
3.541151e-07
3.541151e-07
3.541151e-07
3.541151e-07
1.290818e-07
3.525609e-07
3.541135e-07
3.54115e-07
3.54115e-07
3.541149e-07
3.54115e-07
3.541151e-07
3.541151e-07
3.541151e-07
3.541151e-07
3.541151e-07
3.541151e-07
3.541151e-07
3.541151e-07
3.541151e-07
3.541151e-07
3.541151e-07
1.207859e-07
3.524432e-07
3.541134e-07
3.541151e-07
3.54115e-07
3.54115e-07
3.54115e-07
3.54115e-07
3.541151e-07
3.541151e-07
3.541151e-07
3.541151e-07
3.541151e-07
3.541151e-07
3.541151e-07
3.541151e-07
3.541151e-07
3.541151e-07
1.133181e-07
3.523193e-07
3.541133e-07
3.541151e-07
3.54115e-07
3.541151e-07
3.54115e-07
3.54115e-07
3.541151e-07
3.541151e-07
3.541151e-07
3.541151e-07
3.541151e-07
3.541151e-07
3.541151e-07
3.541151e-07
3.541151e-07
3.541151e-07
1.070366e-07
3.52221e-07
3.541132e-07
3.541151e-07
3.54115e-07
3.541151e-07
3.541151e-07
3.54115e-07
3.541151e-07
3.541151e-07
3.541151e-07
3.541151e-07
3.541151e-07
3.541151e-07
3.541151e-07
3.541151e-07
3.541151e-07
3.541151e-07
1.00558e-07
3.520978e-07
3.54113e-07
3.541151e-07
3.54115e-07
3.541151e-07
3.541151e-07
3.541151e-07
3.541151e-07
3.541151e-07
3.541151e-07
3.541151e-07
3.541151e-07
3.541151e-07
3.541151e-07
3.541151e-07
3.541151e-07
3.541151e-07
9.397917e-08
3.519607e-07
3.541129e-07
3.541151e-07
3.54115e-07
3.541151e-07
3.541151e-07
3.541151e-07
3.541151e-07
3.541151e-07
3.541151e-07
3.541151e-07
3.541151e-07
3.541151e-07
3.541151e-07
3.541151e-07
3.541151e-07
3.541151e-07
8.798814e-08
3.518384e-07
3.541127e-07
3.54115e-07
3.54115e-07
3.541151e-07
3.541151e-07
3.541151e-07
3.541151e-07
3.541151e-07
3.541151e-07
3.541151e-07
3.541151e-07
3.541151e-07
3.54115e-07
3.541151e-07
3.541151e-07
3.541151e-07
8.188102e-08
3.517224e-07
3.541126e-07
3.54115e-07
3.54115e-07
3.541151e-07
3.541151e-07
3.541151e-07
3.541151e-07
3.541151e-07
3.541151e-07
3.541151e-07
3.541151e-07
3.541151e-07
3.541151e-07
3.541151e-07
3.541151e-07
3.541151e-07
7.582155e-08
3.515871e-07
3.541124e-07
3.54115e-07
3.54115e-07
3.541151e-07
3.541151e-07
3.541151e-07
3.541151e-07
3.541151e-07
3.541151e-07
3.541151e-07
3.541151e-07
3.541151e-07
3.541151e-07
3.541151e-07
3.541151e-07
3.541151e-07
7.008197e-08
3.514556e-07
3.541122e-07
3.54115e-07
3.54115e-07
3.54115e-07
3.54115e-07
3.541151e-07
3.54115e-07
3.541151e-07
3.541151e-07
3.541151e-07
3.541151e-07
3.541151e-07
3.541151e-07
3.541151e-07
3.541151e-07
3.541151e-07
6.42135e-08
3.513592e-07
3.541121e-07
3.541138e-07
3.541138e-07
3.54115e-07
3.54115e-07
3.54115e-07
3.54115e-07
3.541151e-07
3.541151e-07
3.541151e-07
3.541151e-07
3.541151e-07
3.541151e-07
3.541151e-07
3.541151e-07
3.541151e-07
5.962275e-08
3.513341e-07
3.541117e-07
3.540136e-07
3.540339e-07
3.541138e-07
3.54115e-07
3.541148e-07
3.541149e-07
3.541151e-07
3.541151e-07
3.541151e-07
3.541151e-07
3.541151e-07
3.541151e-07
3.541151e-07
3.541151e-07
3.541151e-07
5.439243e-08
3.514629e-07
3.54112e-07
3.540206e-07
3.540717e-07
3.541133e-07
3.54115e-07
3.541114e-07
3.541117e-07
3.54115e-07
3.541151e-07
3.541151e-07
3.541151e-07
3.54115e-07
3.541151e-07
3.541151e-07
3.541151e-07
3.541151e-07
4.888791e-08
3.518498e-07
3.541122e-07
3.540579e-07
3.540973e-07
3.541148e-07
3.541149e-07
3.541148e-07
3.54115e-07
3.54115e-07
3.541151e-07
3.541151e-07
3.54115e-07
3.54115e-07
3.541151e-07
3.541151e-07
3.541151e-07
3.54115e-07
4.289277e-08
3.527435e-07
3.540973e-07
3.538458e-07
3.538322e-07
3.541089e-07
3.541148e-07
3.541149e-07
3.54115e-07
3.54115e-07
3.541151e-07
3.541151e-07
3.54115e-07
3.54115e-07
3.541151e-07
3.541151e-07
3.54115e-07
3.54115e-07
3.094014e-08
3.502269e-07
3.540573e-07
3.536385e-07
3.537554e-07
3.536814e-07
3.541141e-07
3.541143e-07
3.54113e-07
3.541139e-07
3.541151e-07
3.541151e-07
3.54115e-07
3.54115e-07
3.541151e-07
3.541151e-07
3.54115e-07
3.54115e-07
2.435677e-08
3.50252e-07
3.540169e-07
3.541133e-07
3.539983e-07
3.54101e-07
3.541108e-07
3.541014e-07
3.54101e-07
3.541145e-07
3.54115e-07
3.54115e-07
3.54115e-07
3.54115e-07
3.541151e-07
3.54115e-07
3.54115e-07
3.541151e-07
1.633173e-08
3.512757e-07
3.539911e-07
3.540865e-07
3.541217e-07
3.541395e-07
3.54138e-07
3.541303e-07
3.541217e-07
3.541195e-07
3.541154e-07
3.541144e-07
3.541143e-07
3.54115e-07
3.54115e-07
3.54115e-07
3.54115e-07
3.541151e-07
3.734474e-08
3.419958e-07
3.53068e-07
3.53757e-07
3.541422e-07
3.541862e-07
3.54228e-07
3.542589e-07
3.542553e-07
3.542203e-07
3.541969e-07
3.541583e-07
3.541208e-07
3.54114e-07
3.541142e-07
3.541147e-07
3.54115e-07
3.541151e-07
4.379927e-08
3.50538e-07
3.531987e-07
3.538323e-07
3.541117e-07
3.542004e-07
3.542972e-07
3.543904e-07
3.543922e-07
3.543362e-07