/*--------------------------------*- C++ -*----------------------------------*\
| =========                 |                                                 |
| \\      /  F ield         | OpenFOAM: The Open Source CFD Toolbox           |
|  \\    /   O peration     | Version:  2206                                  |
|   \\  /    A nd           | Website:  www.openfoam.com                      |
|    \\/     M anipulation  |                                                 |
\*---------------------------------------------------------------------------*/
FoamFile
{
    version     2.0;
    format      ascii;
    arch        "LSB;label=32;scalar=64";
    class       volScalarField;
    location    "1.8";
    object      k.b_0;
}
// * * * * * * * * * * * * * * * * * * * * * * * * * * * * * * * * * * * * * //

dimensions      [0 2 -2 0 0 0 0];

internalField   nonuniform List<scalar> 
13078
(
8.894008e-14
8.891517e-11
1.080142e-10
1.088082e-10
1.095778e-10
1.104828e-10
1.115387e-10
9.189566e-14
7.89086e-11
1.074638e-10
1.087393e-10
1.095469e-10
1.104592e-10
1.11515e-10
1.231458e-13
7.857488e-11
1.073558e-10
1.086768e-10
1.095051e-10
1.104278e-10
1.114866e-10
1.045261e-13
7.880836e-11
1.073224e-10
1.086286e-10
1.09466e-10
1.103955e-10
1.114567e-10
1.005043e-13
7.889354e-11
1.073032e-10
1.086058e-10
1.094341e-10
1.103652e-10
1.114274e-10
1.040428e-13
7.894159e-11
1.072961e-10
1.085922e-10
1.094209e-10
1.103392e-10
1.113994e-10
1.103678e-13
7.895127e-11
1.072862e-10
1.085817e-10
1.094119e-10
1.103301e-10
1.113747e-10
1.188175e-13
7.893733e-11
1.072759e-10
1.085756e-10
1.094066e-10
1.103241e-10
1.113675e-10
1.294481e-13
7.892117e-11
1.072775e-10
1.08574e-10
1.094035e-10
1.103198e-10
1.113623e-10
1.425044e-13
7.889177e-11
1.072786e-10
1.085733e-10
1.094015e-10
1.103166e-10
1.113583e-10
1.584926e-13
7.885333e-11
1.072789e-10
1.08573e-10
1.094001e-10
1.103141e-10
1.113547e-10
1.780805e-13
7.880777e-11
1.072786e-10
1.085728e-10
1.093989e-10
1.103118e-10
1.113515e-10
2.021443e-13
7.875673e-11
1.072778e-10
1.085725e-10
1.093978e-10
1.103098e-10
1.113485e-10
2.318459e-13
7.870053e-11
1.072764e-10
1.085718e-10
1.093963e-10
1.103077e-10
1.113455e-10
2.686828e-13
7.863996e-11
1.07274e-10
1.085667e-10
1.093886e-10
1.10305e-10
1.113424e-10
3.145682e-13
7.857517e-11
1.072709e-10
1.085602e-10
1.093824e-10
1.103024e-10
1.113393e-10
3.719619e-13
7.85067e-11
1.072684e-10
1.085586e-10
1.093804e-10
1.103e-10
1.11336e-10
4.440234e-13
7.843442e-11
1.072656e-10
1.085573e-10
1.093784e-10
1.102975e-10
1.113325e-10
5.347795e-13
7.835793e-11
1.072625e-10
1.085558e-10
1.09376e-10
1.102941e-10
1.113289e-10
6.493843e-13
7.827763e-11
1.072589e-10
1.085537e-10
1.093671e-10
1.102811e-10
1.113241e-10
7.943926e-13
7.819302e-11
1.072552e-10
1.085513e-10
1.093562e-10
1.102705e-10
1.113191e-10
9.781889e-13
7.810417e-11
1.072513e-10
1.085494e-10
1.093526e-10
1.102663e-10
1.113147e-10
1.211435e-12
7.801058e-11
1.072469e-10
1.085473e-10
1.093494e-10
1.102616e-10
1.11309e-10
1.507681e-12
7.791214e-11
1.072423e-10
1.085449e-10
1.093452e-10
1.102476e-10
1.112886e-10
1.884069e-12
7.780834e-11
1.072374e-10
1.085424e-10
1.093407e-10
1.102308e-10
1.112719e-10
2.362209e-12
7.769874e-11
1.07232e-10
1.085397e-10
1.093366e-10
1.102238e-10
1.112641e-10
2.969195e-12
7.758487e-11
1.072262e-10
1.085367e-10
1.093321e-10
1.102175e-10
1.112553e-10
3.738684e-12
7.745183e-11
1.072194e-10
1.085336e-10
1.093272e-10
1.102099e-10
1.112328e-10
4.712617e-12
7.733479e-11
1.07213e-10
1.085302e-10
1.093217e-10
1.102014e-10
1.112065e-10
5.943548e-12
7.699703e-11
1.071978e-10
1.085264e-10
1.09316e-10
1.101933e-10
1.111937e-10
7.511144e-12
7.66358e-11
1.071928e-10
1.085225e-10
1.093097e-10
1.101844e-10
1.111811e-10
9.460241e-12
7.603609e-11
1.071821e-10
1.085174e-10
1.093029e-10
1.101746e-10
1.111669e-10
1.188649e-11
7.527641e-11
1.071258e-10
1.085016e-10
1.092944e-10
1.101635e-10
1.111525e-10
1.48785e-11
7.50118e-11
1.070833e-10
1.084872e-10
1.09284e-10
1.101505e-10
1.111357e-10
1.853533e-11
7.473858e-11
1.070601e-10
1.084679e-10
1.092494e-10
1.101306e-10
1.111143e-10
2.295057e-11
7.443895e-11
1.070272e-10
1.084435e-10
1.09207e-10
1.100773e-10
1.110827e-10
2.820151e-11
7.411568e-11
1.069829e-10
1.08411e-10
1.09166e-10
1.100247e-10
1.110444e-10
3.432935e-11
7.376614e-11
1.069239e-10
1.083734e-10
1.091261e-10
1.099699e-10
1.109707e-10
4.131799e-11
7.339492e-11
1.068533e-10
1.083317e-10
1.090836e-10
1.099187e-10
1.108958e-10
4.913139e-11
7.271773e-11
1.067657e-10
1.082767e-10
1.090118e-10
1.098312e-10
1.10782e-10
5.771387e-11
7.148462e-11
1.066469e-10
1.081686e-10
1.0887e-10
1.096673e-10
1.106275e-10
6.640412e-11
7.02564e-11
1.064005e-10
1.07924e-10
1.086219e-10
1.093953e-10
1.102568e-10
7.479099e-11
6.965353e-11
1.060807e-10
1.075962e-10
1.082324e-10
1.089628e-10
1.097562e-10
8.195077e-11
6.902759e-11
1.0574e-10
1.072802e-10
1.077863e-10
1.083582e-10
1.092737e-10
8.703819e-11
6.813319e-11
1.054384e-10
1.068777e-10
1.073188e-10
1.078639e-10
1.085936e-10
8.969627e-11
6.677192e-11
1.050967e-10
1.063345e-10
1.067702e-10
1.07283e-10
1.079195e-10
8.91592e-11
6.523271e-11
1.046093e-10
1.058453e-10
1.06079e-10
1.065435e-10
1.0716e-10
8.450115e-11
6.415031e-11
1.040504e-10
1.053384e-10
1.054457e-10
1.058089e-10
1.062736e-10
7.617887e-11
6.302069e-11
1.034978e-10
1.047505e-10
1.048978e-10
1.05224e-10
1.056269e-10
6.50744e-11
6.196923e-11
1.02993e-10
1.042428e-10
1.043462e-10
1.045909e-10
1.050655e-10
5.216049e-11
6.033667e-11
1.025481e-10
1.038523e-10
1.039352e-10
1.041262e-10
1.044642e-10
3.838548e-11
5.804822e-11
1.020306e-10
1.034353e-10
1.035597e-10
1.038014e-10
1.041059e-10
2.513582e-11
5.684963e-11
1.0155e-10
1.032208e-10
1.03395e-10
1.037066e-10
1.03901e-10
1.386999e-11
5.611933e-11
1.012422e-10
1.02995e-10
1.032342e-10
1.035435e-10
1.03823e-10
5.663457e-12
5.561797e-11
1.010614e-10
1.028693e-10
1.031629e-10
1.034864e-10
1.038597e-10
1.092558e-12
5.531651e-11
1.009698e-10
1.028164e-10
1.031486e-10
1.035055e-10
1.039274e-10
1.083631e-12
5.539419e-11
1.009694e-10
1.027909e-10
1.031115e-10
1.034668e-10
1.038994e-10
5.759713e-12
5.58278e-11
1.010732e-10
1.028159e-10
1.030912e-10
1.034072e-10
1.037785e-10
1.432432e-11
5.644163e-11
1.012707e-10
1.029261e-10
1.031427e-10
1.034365e-10
1.037009e-10
2.625052e-11
5.726564e-11
1.015834e-10
1.03131e-10
1.032758e-10
1.035602e-10
1.0372e-10
4.031805e-11
5.852816e-11
1.020561e-10
1.033316e-10
1.034317e-10
1.036569e-10
1.039393e-10
5.4882e-11
6.084313e-11
1.025901e-10
1.037691e-10
1.038195e-10
1.039849e-10
1.043008e-10
6.858616e-11
6.248315e-11
1.030285e-10
1.041537e-10
1.0423e-10
1.044524e-10
1.049075e-10
8.015875e-11
6.351418e-11
1.035207e-10
1.046562e-10
1.047798e-10
1.050935e-10
1.054939e-10
8.84737e-11
6.457823e-11
1.040637e-10
1.052493e-10
1.053416e-10
1.057185e-10
1.061765e-10
9.25433e-11
6.554066e-11
1.046245e-10
1.057825e-10
1.060002e-10
1.064667e-10
1.070691e-10
9.243939e-11
6.696362e-11
1.051234e-10
1.063045e-10
1.067127e-10
1.072141e-10
1.077984e-10
8.892873e-11
6.827707e-11
1.054709e-10
1.068791e-10
1.07283e-10
1.078022e-10
1.08487e-10
8.298625e-11
6.916271e-11
1.057723e-10
1.072884e-10
1.077919e-10
1.083083e-10
1.091927e-10
7.519295e-11
6.980306e-11
1.061139e-10
1.076033e-10
1.082348e-10
1.089295e-10
1.096699e-10
6.644243e-11
7.042367e-11
1.064348e-10
1.079233e-10
1.086028e-10
1.093664e-10
1.101891e-10
5.751832e-11
7.147247e-11
1.06671e-10
1.081654e-10
1.088548e-10
1.096461e-10
1.105957e-10
4.888964e-11
7.248487e-11
1.067972e-10
1.082776e-10
1.090071e-10
1.098262e-10
1.107693e-10
4.104343e-11
7.30944e-11
1.068828e-10
1.083408e-10
1.090913e-10
1.099193e-10
1.108901e-10
3.404555e-11
7.347259e-11
1.069524e-10
1.083859e-10
1.091395e-10
1.099765e-10
1.109724e-10
2.792753e-11
7.396811e-11
1.070101e-10
1.084239e-10
1.091813e-10
1.100387e-10
1.110527e-10
2.270244e-11
7.438931e-11
1.070454e-10
1.084489e-10
1.092175e-10
1.100977e-10
1.110892e-10
1.830991e-11
7.474082e-11
1.070703e-10
1.084684e-10
1.092519e-10
1.101322e-10
1.111146e-10
1.469072e-11
7.50545e-11
1.070916e-10
1.08486e-10
1.092824e-10
1.101487e-10
1.111338e-10
1.173514e-11
7.530669e-11
1.071315e-10
1.085e-10
1.092923e-10
1.101613e-10
1.1115e-10
9.338678e-12
7.606075e-11
1.07186e-10
1.08516e-10
1.093011e-10
1.101725e-10
1.111647e-10
7.415896e-12
7.665327e-11
1.071956e-10
1.085211e-10
1.09308e-10
1.101827e-10
1.111792e-10
5.869948e-12
7.700871e-11
1.071995e-10
1.085252e-10
1.093146e-10
1.101919e-10
1.111921e-10
4.658015e-12
7.734288e-11
1.072141e-10
1.085293e-10
1.093206e-10
1.102002e-10
1.112052e-10
3.700124e-12
7.745694e-11
1.0722e-10
1.085327e-10
1.093262e-10
1.102089e-10
1.112317e-10
2.943461e-12
7.758788e-11
1.072265e-10
1.08536e-10
1.093313e-10
1.102165e-10
1.112544e-10
2.346502e-12
7.770026e-11
1.072321e-10
1.085391e-10
1.093358e-10
1.102231e-10
1.112634e-10
1.876038e-12
7.780891e-11
1.072374e-10
1.085419e-10
1.093401e-10
1.102302e-10
1.112714e-10
1.505425e-12
7.79121e-11
1.072423e-10
1.085444e-10
1.093447e-10
1.102471e-10
1.112881e-10
1.213496e-12
7.801017e-11
1.072468e-10
1.085469e-10
1.093489e-10
1.102611e-10
1.113086e-10
9.834269e-13
7.810364e-11
1.072512e-10
1.085491e-10
1.093522e-10
1.10266e-10
1.113143e-10
8.018645e-13
7.819252e-11
1.072551e-10
1.085511e-10
1.09356e-10
1.102703e-10
1.113189e-10
6.583663e-13
7.827735e-11
1.072589e-10
1.085536e-10
1.09367e-10
1.10281e-10
1.113239e-10
5.447275e-13
7.835799e-11
1.072625e-10
1.085558e-10
1.093759e-10
1.102941e-10
1.113288e-10
4.545304e-13
7.8435e-11
1.072658e-10
1.085573e-10
1.093784e-10
1.102975e-10
1.113325e-10
3.827303e-13
7.850799e-11
1.072687e-10
1.085587e-10
1.093804e-10
1.102999e-10
1.113359e-10
3.253878e-13
7.857736e-11
1.072713e-10
1.085604e-10
1.093825e-10
1.103024e-10
1.113392e-10
2.794019e-13
7.864329e-11
1.072747e-10
1.08567e-10
1.093888e-10
1.10305e-10
1.113424e-10
2.423565e-13
7.870532e-11
1.072774e-10
1.085722e-10
1.093966e-10
1.103078e-10
1.113454e-10
2.123828e-13
7.876343e-11
1.072791e-10
1.08573e-10
1.093981e-10
1.103098e-10
1.113483e-10
1.880335e-13
7.881694e-11
1.072802e-10
1.085734e-10
1.093991e-10
1.103117e-10
1.113511e-10
1.682431e-13
7.886591e-11
1.07281e-10
1.085737e-10
1.094001e-10
1.103136e-10
1.113539e-10
1.52082e-13
7.890935e-11
1.072812e-10
1.085739e-10
1.094012e-10
1.103157e-10
1.11357e-10
1.387808e-13
7.894584e-11
1.072807e-10
1.085742e-10
1.094026e-10
1.103181e-10
1.113604e-10
1.278995e-13
7.897212e-11
1.072794e-10
1.085748e-10
1.094044e-10
1.103213e-10
1.113645e-10
1.191689e-13
7.900053e-11
1.07289e-10
1.085789e-10
1.094077e-10
1.103255e-10
1.113704e-10
1.124941e-13
7.901061e-11
1.072965e-10
1.085857e-10
1.094133e-10
1.103322e-10
1.113935e-10
1.082991e-13
7.898783e-11
1.07297e-10
1.085926e-10
1.094218e-10
1.10355e-10
1.114196e-10
1.076216e-13
7.893953e-11
1.073036e-10
1.086055e-10
1.094475e-10
1.103821e-10
1.114474e-10
1.148669e-13
7.882425e-11
1.073213e-10
1.086401e-10
1.094802e-10
1.104121e-10
1.114768e-10
1.36329e-13
7.877365e-11
1.073901e-10
1.086886e-10
1.095187e-10
1.104442e-10
1.115068e-10
1.074561e-13
8.021783e-11
1.074742e-10
1.087523e-10
1.095638e-10
1.104779e-10
1.115367e-10
1.127947e-10
1.143893e-10
1.165429e-10
1.186336e-10
1.224225e-10
1.295041e-10
1.467766e-09
1.127675e-10
1.143541e-10
1.164959e-10
1.185777e-10
1.223518e-10
1.287901e-10
5.271924e-10
1.127378e-10
1.143181e-10
1.16451e-10
1.193025e-10
1.222894e-10
1.286869e-10
5.271155e-10
1.12707e-10
1.142816e-10
1.164027e-10
1.184646e-10
1.22213e-10
1.285838e-10
5.242973e-10
1.126768e-10
1.14245e-10
1.163568e-10
1.184036e-10
1.221425e-10
1.284809e-10
5.210073e-10
1.126471e-10
1.142083e-10
1.163098e-10
1.183461e-10
1.220733e-10
1.283787e-10
5.173276e-10
1.126182e-10
1.141722e-10
1.162632e-10
1.182907e-10
1.22054e-10
1.28278e-10
5.132822e-10
1.125922e-10
1.141366e-10
1.162172e-10
1.182364e-10
1.220363e-10
1.281786e-10
5.087752e-10
1.125851e-10
1.141039e-10
1.161733e-10
1.181812e-10
1.219812e-10
1.280877e-10
5.018501e-10
1.1258e-10
1.140954e-10
1.161326e-10
1.181263e-10
1.219267e-10
1.279972e-10
4.889778e-10
1.125754e-10
1.140891e-10
1.161218e-10
1.180732e-10
1.218726e-10
1.279071e-10
4.740952e-10
1.125711e-10
1.140828e-10
1.161135e-10
1.180616e-10
1.218183e-10
1.278161e-10
4.494574e-10
1.125668e-10
1.140767e-10
1.161051e-10
1.180512e-10
1.218089e-10
1.277222e-10
4.234559e-10
1.125626e-10
1.140705e-10
1.160964e-10
1.180404e-10
1.217984e-10
1.277095e-10
4.061391e-10
1.125583e-10
1.140639e-10
1.160874e-10
1.180293e-10
1.217872e-10
1.276655e-10
3.454586e-10
1.125537e-10
1.140572e-10
1.160781e-10
1.180176e-10
1.217753e-10
1.276264e-10
3.056309e-10
1.125491e-10
1.140501e-10
1.160684e-10
1.180051e-10
1.21758e-10
1.275839e-10
2.788162e-10
1.125443e-10
1.14043e-10
1.160581e-10
1.179864e-10
1.21592e-10
1.275385e-10
2.526528e-10
1.125392e-10
1.140359e-10
1.160476e-10
1.179727e-10
1.215698e-10
1.274945e-10
2.316488e-10
1.125337e-10
1.140283e-10
1.160364e-10
1.179585e-10
1.215516e-10
1.274469e-10
2.102581e-10
1.125281e-10
1.140203e-10
1.160249e-10
1.179436e-10
1.215325e-10
1.273961e-10
1.894405e-10
1.12522e-10
1.140118e-10
1.160128e-10
1.179278e-10
1.215125e-10
1.273499e-10
1.86423e-10
1.125155e-10
1.140028e-10
1.15999e-10
1.179116e-10
1.21488e-10
1.273129e-10
4.709123e-10
1.125072e-10
1.139931e-10
1.159873e-10
1.18618e-10
1.213389e-10
1.272613e-10
4.97796e-10
1.124985e-10
1.139829e-10
1.1597e-10
1.178819e-10
1.212547e-10
1.272239e-10
5.250861e-10
1.124904e-10
1.139721e-10
1.159553e-10
1.178551e-10
1.21225e-10
1.271893e-10
6.146693e-10
1.124799e-10
1.139597e-10
1.159384e-10
1.178337e-10
1.211937e-10
1.271408e-10
5.926461e-10
1.124473e-10
1.139457e-10
1.159188e-10
1.178111e-10
1.211512e-10
1.267818e-10
5.68199e-10
1.124209e-10
1.135317e-10
1.153655e-10
1.177835e-10
1.211124e-10
1.266414e-10
5.317315e-10
1.124042e-10
1.135128e-10
1.153446e-10
1.177593e-10
1.210762e-10
1.265792e-10
4.13256e-10
1.123605e-10
1.13457e-10
1.153244e-10
1.177321e-10
1.210378e-10
1.265064e-10
6.820284e-10
1.123281e-10
1.134139e-10
1.153028e-10
1.177028e-10
1.209964e-10
1.263057e-10
6.364553e-10
1.123059e-10
1.133244e-10
1.152754e-10
1.176714e-10
1.209529e-10
1.261693e-10
5.154561e-10
1.122859e-10
1.132945e-10
1.1519e-10
1.176386e-10
1.209079e-10
1.26024e-10
3.58771e-10
1.122608e-10
1.132589e-10
1.150824e-10
1.176028e-10
1.208625e-10
1.257923e-10
1.922266e-10
1.122279e-10
1.13216e-10
1.149775e-10
1.175528e-10
1.208228e-10
1.257066e-10
2.474036e-10
1.121933e-10
1.131664e-10
1.149414e-10
1.173977e-10
1.207901e-10
1.255903e-10
2.09556e-10
1.121594e-10
1.131204e-10
1.149104e-10
1.172583e-10
1.207786e-10
1.256634e-10
2.538654e-10
1.121198e-10
1.130838e-10
1.149063e-10
1.172552e-10
1.207766e-10
1.258594e-10
1.445275e-10
1.120383e-10
1.130378e-10
1.149436e-10
1.17374e-10
1.20564e-10
1.255779e-10
1.660927e-10
1.118159e-10
1.129008e-10
1.148875e-10
1.172757e-10
1.202269e-10
1.244767e-10
1.546568e-10
1.114173e-10
1.125624e-10
1.143818e-10
1.168059e-10
1.197525e-10
1.231043e-10
1.53426e-10
1.109812e-10
1.12172e-10
1.139443e-10
1.162089e-10
1.189803e-10
1.221289e-10
1.715477e-10
1.105567e-10
1.117403e-10
1.136262e-10
1.157329e-10
1.181726e-10
1.216738e-10
1.59509e-10
1.098518e-10
1.111306e-10
1.129513e-10
1.154223e-10
1.171891e-10
1.211122e-10
1.480972e-10
1.090043e-10
1.105461e-10
1.126715e-10
1.14541e-10
1.167163e-10
1.199121e-10
2.445933e-10
1.082114e-10
1.097668e-10
1.119447e-10
1.141516e-10
1.157545e-10
1.194032e-10
2.044488e-10
1.075485e-10
1.090305e-10
1.114947e-10
1.133123e-10
1.156673e-10
1.181988e-10
1.39484e-10
1.066112e-10
1.08306e-10
1.10609e-10
1.126234e-10
1.150149e-10
1.183765e-10
1.759375e-10
1.059637e-10
1.074908e-10
1.099597e-10
1.119655e-10
1.1429e-10
1.172402e-10
1.321556e-10
1.053632e-10
1.068066e-10
1.090565e-10
1.112116e-10
1.136509e-10
1.164662e-10
1.249079e-10
1.050288e-10
1.063728e-10
1.086073e-10
1.104442e-10
1.126254e-10
1.156086e-10
1.352404e-10
1.048294e-10
1.060048e-10
1.082724e-10
1.099255e-10
1.120703e-10
1.17011e-10
3.072757e-10
1.046892e-10
1.058666e-10
1.079528e-10
1.097304e-10
1.114084e-10
1.137863e-10
1.405265e-10
1.046917e-10
1.057946e-10
1.080048e-10
1.09497e-10
1.110828e-10
1.118405e-10
1.137931e-10
1.047824e-10
1.058318e-10
1.079758e-10
1.095216e-10
1.105421e-10
1.112759e-10
1.047581e-10
1.058335e-10
1.080704e-10
1.096607e-10
1.107473e-10
1.115614e-10
1.046219e-10
1.056677e-10
1.078741e-10
1.094432e-10
1.105473e-10
1.112978e-10
1.045423e-10
1.0558e-10
1.078461e-10
1.093029e-10
1.110409e-10
1.127161e-10
1.182162e-10
1.04611e-10
1.054495e-10
1.079049e-10
1.09644e-10
1.115164e-10
1.14717e-10
1.779959e-10
1.048128e-10
1.056248e-10
1.082327e-10
1.102114e-10
1.122523e-10
1.152401e-10
1.652311e-10
1.051582e-10
1.059039e-10
1.083652e-10
1.105098e-10
1.128762e-10
1.156964e-10
1.409246e-10
1.057757e-10
1.065536e-10
1.09325e-10
1.113136e-10
1.133718e-10
1.164862e-10
1.269743e-10
1.064555e-10
1.073142e-10
1.098294e-10
1.116433e-10
1.143534e-10
1.170814e-10
1.326774e-10
1.073907e-10
1.081156e-10
1.104771e-10
1.126677e-10
1.148666e-10
1.176756e-10
1.387142e-10
1.080909e-10
1.090257e-10
1.113125e-10
1.132229e-10
1.154004e-10
1.182693e-10
2.045324e-10
1.088469e-10
1.097249e-10
1.118898e-10
1.140195e-10
1.159302e-10
1.191221e-10
1.714958e-10
1.096908e-10
1.105432e-10
1.125402e-10
1.145396e-10
1.167069e-10
1.200763e-10
1.746705e-10
1.103024e-10
1.112432e-10
1.131457e-10
1.153198e-10
1.175074e-10
1.210645e-10
1.444222e-10
1.108606e-10
1.118081e-10
1.136325e-10
1.159014e-10
1.184399e-10
1.236227e-10
1.269009e-09
1.112991e-10
1.122848e-10
1.140904e-10
1.164137e-10
1.192562e-10
1.225717e-10
1.538521e-10
1.117423e-10
1.125896e-10
1.145692e-10
1.169896e-10
1.199393e-10
1.235953e-10
2.264264e-10
1.11996e-10
1.129833e-10
1.147822e-10
1.172767e-10
1.203816e-10
1.249611e-10
1.51803e-10
1.12104e-10
1.130515e-10
1.148875e-10
1.172638e-10
1.205874e-10
1.257535e-10
1.566393e-10
1.12155e-10
1.130999e-10
1.148848e-10
1.172088e-10
1.208117e-10
1.257709e-10
3.06488e-10
1.121969e-10
1.131462e-10
1.149117e-10
1.172593e-10
1.207522e-10
1.255408e-10
1.384205e-10
1.122318e-10
1.131956e-10
1.149514e-10
1.174447e-10
1.20787e-10
1.256329e-10
1.636673e-10
1.122604e-10
1.132392e-10
1.150239e-10
1.175741e-10
1.208277e-10
1.257433e-10
2.427483e-10
1.122833e-10
1.132798e-10
1.151279e-10
1.176143e-10
1.208746e-10
1.258228e-10
2.544385e-10
1.12303e-10
1.132976e-10
1.152515e-10
1.176494e-10
1.209229e-10
1.260345e-10
4.907048e-10
1.123255e-10
1.133665e-10
1.152856e-10
1.176832e-10
1.209696e-10
1.262599e-10
6.379591e-10
1.123583e-10
1.134265e-10
1.15311e-10
1.177146e-10
1.210136e-10
1.263526e-10
6.823211e-10
1.124026e-10
1.134998e-10
1.153326e-10
1.177437e-10
1.210546e-10
1.265718e-10
4.678124e-10
1.124196e-10
1.135134e-10
1.153532e-10
1.177704e-10
1.210925e-10
1.266041e-10
4.301488e-10
1.124463e-10
1.139446e-10
1.159177e-10
1.178004e-10
1.211293e-10
1.266709e-10
5.47876e-10
1.124789e-10
1.139588e-10
1.159375e-10
1.178226e-10
1.211732e-10
1.270003e-10
5.829653e-10
1.124896e-10
1.139713e-10
1.159546e-10
1.178446e-10
1.212092e-10
1.271683e-10
6.082414e-10
1.124979e-10
1.139823e-10
1.159704e-10
1.178652e-10
1.2124e-10
1.272119e-10
6.328786e-10
1.125067e-10
1.139928e-10
1.159853e-10
1.178847e-10
1.212726e-10
1.27216e-10
1.727146e-10
1.125152e-10
1.140024e-10
1.159992e-10
1.179033e-10
1.214354e-10
1.272741e-10
1.727422e-10
1.125216e-10
1.140115e-10
1.160123e-10
1.179208e-10
1.215024e-10
1.273235e-10
1.784967e-10
1.125278e-10
1.140201e-10
1.160247e-10
1.17937e-10
1.21523e-10
1.273692e-10
1.815024e-10
1.125336e-10
1.140282e-10
1.160364e-10
1.179525e-10
1.215428e-10
1.274158e-10
1.963378e-10
1.125392e-10
1.140358e-10
1.160477e-10
1.179671e-10
1.215613e-10
1.27463e-10
2.148552e-10
1.125442e-10
1.14043e-10
1.160582e-10
1.17981e-10
1.21579e-10
1.275104e-10
2.370516e-10
1.125491e-10
1.140502e-10
1.160685e-10
1.179979e-10
1.216653e-10
1.275558e-10
2.611842e-10
1.125537e-10
1.140572e-10
1.160781e-10
1.180131e-10
1.217697e-10
1.276e-10
2.87846e-10
1.125582e-10
1.140639e-10
1.160874e-10
1.180252e-10
1.217818e-10
1.276406e-10
3.167102e-10
1.125624e-10
1.140703e-10
1.160963e-10
1.180369e-10
1.217933e-10
1.276876e-10
3.668336e-10
1.125665e-10
1.140764e-10
1.161049e-10
1.18048e-10
1.218041e-10
1.277154e-10
3.994437e-10
1.125705e-10
1.140823e-10
1.161131e-10
1.180588e-10
1.218144e-10
1.277693e-10
4.241996e-10
1.125746e-10
1.140883e-10
1.161211e-10
1.180693e-10
1.21846e-10
1.278612e-10
4.486109e-10
1.125787e-10
1.140942e-10
1.161316e-10
1.181017e-10
1.218997e-10
1.279523e-10
4.720985e-10
1.125832e-10
1.141022e-10
1.16172e-10
1.181564e-10
1.219539e-10
1.280428e-10
4.883234e-10
1.125894e-10
1.141342e-10
1.162153e-10
1.182116e-10
1.220083e-10
1.281335e-10
5.001086e-10
1.126145e-10
1.141691e-10
1.162608e-10
1.182674e-10
1.220608e-10
1.282281e-10
5.093952e-10
1.126423e-10
1.142046e-10
1.16307e-10
1.183205e-10
1.220406e-10
1.283281e-10
5.13973e-10
1.126711e-10
1.142408e-10
1.163536e-10
1.183772e-10
1.221075e-10
1.284293e-10
5.180554e-10
1.127008e-10
1.142775e-10
1.164007e-10
1.184341e-10
1.221768e-10
1.285318e-10
5.217398e-10
1.127318e-10
1.143146e-10
1.164479e-10
1.184913e-10
1.222466e-10
1.286347e-10
5.25079e-10
1.127629e-10
1.143515e-10
1.164951e-10
1.185481e-10
1.223168e-10
1.28738e-10
5.278579e-10
1.127938e-10
1.143888e-10
1.165424e-10
1.186047e-10
1.22387e-10
1.288667e-10
5.380478e-10
2.6702e-07
3.534719e-07
3.545151e-07
3.545168e-07
3.545168e-07
3.545168e-07
3.545168e-07
3.545168e-07
3.545168e-07
3.545168e-07
3.545168e-07
3.545168e-07
3.545168e-07
3.545168e-07
3.545168e-07
3.545168e-07
3.545168e-07
3.545168e-07
2.804472e-07
3.541949e-07
3.54517e-07
3.545173e-07
3.545173e-07
3.545173e-07
3.545173e-07
3.545173e-07
3.545173e-07
3.545173e-07
3.545173e-07
3.545173e-07
3.545173e-07
3.545173e-07
3.545173e-07
3.545173e-07
3.545173e-07
3.545173e-07
2.760191e-07
3.540314e-07
3.545169e-07
3.545173e-07
3.545173e-07
3.545173e-07
3.545173e-07
3.545173e-07
3.545173e-07
3.545173e-07
3.545173e-07
3.545173e-07
3.545173e-07
3.545173e-07
3.545173e-07
3.545173e-07
3.545173e-07
3.545173e-07
2.72737e-07
3.540244e-07
3.545169e-07
3.545173e-07
3.545173e-07
3.545173e-07
3.545173e-07
3.545173e-07
3.545173e-07
3.545173e-07
3.545173e-07
3.545173e-07
3.545173e-07
3.545173e-07
3.545173e-07
3.545173e-07
3.545173e-07
3.545173e-07
2.690052e-07
3.540186e-07
3.545169e-07
3.545173e-07
3.545173e-07
3.545173e-07
3.545173e-07
3.545173e-07
3.545173e-07
3.545173e-07
3.545173e-07
3.545173e-07
3.545173e-07
3.545173e-07
3.545173e-07
3.545173e-07
3.545173e-07
3.545173e-07
2.647498e-07
3.540032e-07
3.545169e-07
3.545173e-07
3.545173e-07
3.545173e-07
3.545173e-07
3.545173e-07
3.545173e-07
3.545173e-07
3.545173e-07
3.545173e-07
3.545173e-07
3.545173e-07
3.545173e-07
3.545173e-07
3.545173e-07
3.545173e-07
2.600519e-07
3.539788e-07
3.545168e-07
3.545173e-07
3.545173e-07
3.545173e-07
3.545173e-07
3.545173e-07
3.545173e-07
3.545173e-07
3.545173e-07
3.545173e-07
3.545173e-07
3.545173e-07
3.545173e-07
3.545173e-07
3.545173e-07
3.545173e-07
2.549298e-07
3.539448e-07
3.545168e-07
3.545173e-07
3.545173e-07
3.545173e-07
3.545173e-07
3.545173e-07
3.545173e-07
3.545173e-07
3.545173e-07
3.545173e-07
3.545173e-07
3.545173e-07
3.545173e-07
3.545173e-07
3.545173e-07
3.545173e-07
2.483971e-07
3.539054e-07
3.545168e-07
3.545173e-07
3.545173e-07
3.545173e-07
3.545173e-07
3.545173e-07
3.545173e-07
3.545173e-07
3.545173e-07
3.545173e-07
3.545173e-07
3.545173e-07
3.545173e-07
3.545173e-07
3.545173e-07
3.545173e-07
2.415024e-07
3.538711e-07
3.545167e-07
3.545173e-07
3.545173e-07
3.545173e-07
3.545173e-07
3.545173e-07
3.545173e-07
3.545173e-07
3.545173e-07
3.545173e-07
3.545173e-07
3.545173e-07
3.545173e-07
3.545173e-07
3.545173e-07
3.545173e-07
2.346216e-07
3.538323e-07
3.545167e-07
3.545173e-07
3.545173e-07
3.545173e-07
3.545173e-07
3.545173e-07
3.545173e-07
3.545173e-07
3.545173e-07
3.545173e-07
3.545173e-07
3.545173e-07
3.545173e-07
3.545173e-07
3.545173e-07
3.545173e-07
2.274903e-07
3.538034e-07
3.545167e-07
3.545173e-07
3.545173e-07
3.545173e-07
3.545173e-07
3.545173e-07
3.545173e-07
3.545173e-07
3.545173e-07
3.545173e-07
3.545173e-07
3.545173e-07
3.545173e-07
3.545173e-07
3.545173e-07
3.545173e-07
2.206824e-07
3.537792e-07
3.545167e-07
3.545173e-07
3.545173e-07
3.545173e-07
3.545173e-07
3.545173e-07
3.545173e-07
3.545173e-07
3.545173e-07
3.545173e-07
3.545173e-07
3.545173e-07
3.545173e-07
3.545173e-07
3.545173e-07
3.545173e-07
2.115038e-07
3.53732e-07
3.545166e-07
3.545173e-07
3.545173e-07
3.545173e-07
3.545173e-07
3.545173e-07
3.545173e-07
3.545173e-07
3.545173e-07
3.545173e-07
3.545173e-07
3.545173e-07
3.545173e-07
3.545173e-07
3.545173e-07
3.545173e-07
1.784811e-07
3.535021e-07
3.545163e-07
3.545173e-07
3.545173e-07
3.545173e-07
3.545173e-07
3.545173e-07
3.545173e-07
3.545173e-07
3.545173e-07
3.545173e-07
3.545173e-07
3.545173e-07
3.545173e-07
3.545173e-07
3.545173e-07
3.545173e-07
1.679792e-07
3.53072e-07
3.545144e-07
3.545173e-07
3.545173e-07
3.545173e-07
3.545173e-07
3.545173e-07
3.545173e-07
3.545173e-07
3.545173e-07
3.545173e-07
3.545173e-07
3.545173e-07
3.545173e-07
3.545173e-07
3.545173e-07
3.545173e-07
1.581878e-07
3.533044e-07
3.545139e-07
3.545169e-07
3.545173e-07
3.545173e-07
3.545173e-07
3.545173e-07
3.545173e-07
3.545173e-07
3.545173e-07
3.545173e-07
3.545173e-07
3.545173e-07
3.545173e-07
3.545173e-07
3.545173e-07
3.545173e-07
1.479887e-07
3.531916e-07
3.545152e-07
3.545164e-07
3.545172e-07
3.545173e-07
3.545173e-07
3.545173e-07
3.545173e-07
3.545173e-07
3.545173e-07
3.545173e-07
3.545173e-07
3.545173e-07
3.545173e-07
3.545173e-07
3.545173e-07
3.545173e-07
1.382833e-07
3.530857e-07
3.545158e-07
3.545169e-07
3.545168e-07
3.545173e-07
3.545173e-07
3.545173e-07
3.545173e-07
3.545173e-07
3.545173e-07
3.545173e-07
3.545173e-07
3.545173e-07
3.545173e-07
3.545173e-07
3.545173e-07
3.545173e-07
1.29362e-07
3.529678e-07
3.545157e-07
3.545173e-07
3.545172e-07
3.545171e-07
3.545173e-07
3.545173e-07
3.545173e-07
3.545173e-07
3.545173e-07
3.545173e-07
3.545173e-07
3.545173e-07
3.545173e-07
3.545173e-07
3.545173e-07
3.545173e-07
1.210492e-07
3.528501e-07
3.545156e-07
3.545173e-07
3.545173e-07
3.545172e-07
3.545172e-07
3.545173e-07
3.545173e-07
3.545173e-07
3.545173e-07
3.545173e-07
3.545173e-07
3.545173e-07
3.545173e-07
3.545173e-07
3.545173e-07
3.545173e-07
1.135661e-07
3.527264e-07
3.545155e-07
3.545173e-07
3.545173e-07
3.545173e-07
3.545173e-07
3.545173e-07
3.545173e-07
3.545173e-07
3.545173e-07
3.545173e-07
3.545173e-07
3.545173e-07
3.545173e-07
3.545173e-07
3.545173e-07
3.545173e-07
1.072649e-07
3.526281e-07
3.545154e-07
3.545173e-07
3.545173e-07
3.545173e-07
3.545173e-07
3.545173e-07
3.545173e-07
3.545173e-07
3.545173e-07
3.545173e-07
3.545173e-07
3.545173e-07
3.545173e-07
3.545173e-07
3.545173e-07
3.545173e-07
1.007756e-07
3.525051e-07
3.545153e-07
3.545173e-07
3.545173e-07
3.545173e-07
3.545173e-07
3.545173e-07
3.545173e-07
3.545173e-07
3.545173e-07
3.545173e-07
3.545173e-07
3.545173e-07
3.545173e-07
3.545173e-07
3.545173e-07
3.545173e-07
9.418402e-08
3.52368e-07
3.545151e-07
3.545173e-07
3.545173e-07
3.545173e-07
3.545173e-07
3.545173e-07
3.545173e-07
3.545173e-07
3.545173e-07
3.545173e-07
3.545173e-07
3.545173e-07
3.545173e-07
3.545173e-07
3.545173e-07
3.545173e-07
8.818038e-08
3.522457e-07
3.545149e-07
3.545173e-07
3.545173e-07
3.545173e-07
3.545173e-07
3.545173e-07
3.545173e-07
3.545173e-07
3.545173e-07
3.545173e-07
3.545173e-07
3.545173e-07
3.545173e-07
3.545173e-07
3.545173e-07
3.545173e-07
8.206214e-08
3.521295e-07
3.545148e-07
3.545173e-07
3.545173e-07
3.545173e-07
3.545173e-07
3.545173e-07
3.545173e-07
3.545173e-07
3.545173e-07
3.545173e-07
3.545173e-07
3.545173e-07
3.545173e-07
3.545173e-07
3.545173e-07
3.545173e-07
7.599134e-08
3.519942e-07
3.545146e-07
3.545173e-07
3.545172e-07
3.545173e-07
3.545173e-07
3.545173e-07
3.545173e-07
3.545173e-07
3.545173e-07
3.545173e-07
3.545173e-07
3.545173e-07
3.545173e-07
3.545173e-07
3.545173e-07
3.545173e-07
7.02411e-08
3.518624e-07
3.545144e-07
3.545173e-07
3.545172e-07
3.545173e-07
3.545173e-07
3.545173e-07
3.545173e-07
3.545173e-07
3.545173e-07
3.545173e-07
3.545173e-07
3.545173e-07
3.545173e-07
3.545173e-07
3.545173e-07
3.545173e-07
6.436295e-08
3.517657e-07
3.545143e-07
3.545161e-07
3.54516e-07
3.545172e-07
3.545173e-07
3.545173e-07
3.545173e-07
3.545173e-07
3.545173e-07
3.545173e-07
3.545173e-07
3.545173e-07
3.545173e-07
3.545173e-07
3.545173e-07
3.545173e-07
5.976444e-08
3.517396e-07
3.545139e-07
3.544171e-07
3.54437e-07
3.545161e-07
3.545172e-07
3.545171e-07
3.545171e-07
3.545173e-07
3.545173e-07
3.545173e-07
3.545173e-07
3.545173e-07
3.545173e-07
3.545173e-07
3.545173e-07
3.545173e-07
5.452459e-08
3.518668e-07
3.545142e-07
3.544226e-07
3.544736e-07
3.545155e-07
3.545172e-07
3.545136e-07
3.54514e-07
3.545172e-07
3.545173e-07
3.545173e-07
3.545173e-07
3.545173e-07
3.545173e-07
3.545173e-07
3.545173e-07
3.545173e-07
4.901006e-08
3.522508e-07
3.545145e-07
3.54461e-07
3.545004e-07
3.545171e-07
3.545172e-07
3.54517e-07
3.545172e-07
3.545173e-07
3.545173e-07
3.545173e-07
3.545173e-07
3.545172e-07
3.545173e-07
3.545173e-07
3.545173e-07
3.545173e-07
4.300595e-08
3.53153e-07
3.544998e-07
3.542513e-07
3.542372e-07
3.545113e-07
3.54517e-07
3.545171e-07
3.545172e-07
3.545173e-07
3.545173e-07
3.545173e-07
3.545173e-07
3.545173e-07
3.545173e-07
3.545173e-07
3.545172e-07
3.545173e-07
3.102798e-08
3.506311e-07
3.544599e-07
3.540403e-07
3.541584e-07
3.540858e-07
3.545163e-07
3.545165e-07
3.545153e-07
3.545162e-07
3.545173e-07
3.545173e-07
3.545172e-07
3.545173e-07
3.545173e-07
3.545173e-07
3.545172e-07
3.545173e-07
2.443673e-08
3.506627e-07
3.544199e-07
3.545154e-07
3.543992e-07
3.545024e-07
3.545131e-07
3.545037e-07
3.545033e-07
3.545167e-07
3.545173e-07
3.545173e-07
3.545172e-07
3.545172e-07
3.545173e-07
3.545173e-07
3.545172e-07
3.545173e-07
1.64158e-08
3.516761e-07
3.543944e-07
3.544897e-07
3.54524e-07
3.545415e-07
3.545401e-07
3.545323e-07
3.545237e-07
3.545216e-07
3.545176e-07
3.545166e-07
3.545165e-07
3.545172e-07
3.545173e-07
3.545172e-07
3.545172e-07
3.545173e-07
3.750811e-08
3.424699e-07
3.534787e-07
3.54163e-07
3.54544e-07
3.545877e-07
3.54631e-07
3.546633e-07
3.546598e-07
3.546236e-07
3.546e-07
3.545609e-07
3.545228e-07
3.545162e-07
3.545164e-07
3.54517e-07
3.545172e-07
3.545173e-07
4.398562e-08
3.508509e-07
3.535991e-07
3.542304e-07