/*--------------------------------*- C++ -*----------------------------------*\
| =========                 |                                                 |
| \\      /  F ield         | OpenFOAM: The Open Source CFD Toolbox           |
|  \\    /   O peration     | Version:  2206                                  |
|   \\  /    A nd           | Website:  www.openfoam.com                      |
|    \\/     M anipulation  |                                                 |
\*---------------------------------------------------------------------------*/
FoamFile
{
    version     2.0;
    format      ascii;
    arch        "LSB;label=32;scalar=64";
    class       volScalarField;
    location    "1.8";
    object      muEff;
}
// * * * * * * * * * * * * * * * * * * * * * * * * * * * * * * * * * * * * * //

dimensions      [1 -1 -1 0 0 0 0];

internalField   nonuniform List<scalar> 
13078
(
0.0368053
0.0368053
0.0368053
0.0368053
0.0368053
0.0368053
0.0368053
0.0368053
0.0368053
0.0368053
0.0368053
0.0368053
0.0368053
0.0368053
0.0368053
0.0368053
0.0368053
0.0368053
0.0368053
0.0368053
0.0368053
0.0368053
0.0368053
0.0368053
0.0368053
0.0368053
0.0368053
0.0368053
0.0368053
0.0368053
0.0368053
0.0368053
0.0368053
0.0368053
0.0368053
0.0368053
0.0368053
0.0368053
0.0368053
0.0368053
0.0368053
0.0368053
0.0368053
0.0368053
0.0368053
0.0368053
0.0368053
0.0368053
0.0368053
0.0368053
0.0368053
0.0368053
0.0368053
0.0368053
0.0368053
0.0368053
0.0368053
0.0368053
0.0368053
0.0368053
0.0368053
0.0368053
0.0368053
0.0368053
0.0368053
0.0368053
0.0368053
0.0368053
0.0368053
0.0368053
0.0368053
0.0368053
0.0368053
0.0368053
0.0368053
0.0368053
0.0368053
0.0368053
0.0368053
0.0368053
0.0368053
0.0368053
0.0368053
0.0368053
0.0368053
0.0368053
0.0368053
0.0368053
0.0368053
0.0368053
0.0368053
0.0368053
0.0368053
0.0368053
0.0368053
0.0368053
0.0368053
0.0368053
0.0368053
0.0368053
0.0368053
0.0368053
0.0368053
0.0368053
0.0368053
0.0368053
0.0368053
0.0368053
0.0368053
0.0368053
0.0368053
0.0368053
0.0368053
0.0368053
0.0368053
0.0368053
0.0368053
0.0368053
0.0368053
0.0368053
0.0368053
0.0368053
0.0368053
0.0368053
0.0368053
0.0368053
0.0368053
0.0368053
0.0368053
0.0368053
0.0368053
0.0368053
0.0368053
0.0368053
0.0368053
0.0368053
0.0368053
0.0368053
0.0368053
0.0368053
0.0368053
0.0368053
0.0368053
0.0368053
0.0368053
0.0368053
0.0368053
0.0368053
0.0368053
0.0368053
0.0368053
0.0368053
0.0368053
0.0368053
0.0368053
0.0368053
0.0368053
0.0368053
0.0368053
0.0368053
0.0368053
0.0368053
0.0368053
0.0368053
0.0368053
0.0368053
0.0368053
0.0368053
0.0368053
0.0368053
0.0368053
0.0368053
0.0368053
0.0368053
0.0368053
0.0368053
0.0368053
0.0368053
0.0368053
0.0368053
0.0368053
0.0368053
0.0368053
0.0368053
0.0368053
0.0368053
0.0368053
0.0368053
0.0368053
0.0368053
0.0368053
0.0368053
0.0368053
0.0368053
0.0368053
0.0368053
0.0368053
0.0368053
0.0368053
0.0368053
0.0368053
0.0368053
0.0368053
0.0368053
0.0368053
0.0368053
0.0368053
0.0368053
0.0368053
0.0368053
0.0368053
0.0368053
0.0368053
0.0368053
0.0368053
0.0368053
0.0368053
0.0368053
0.0368053
0.0368053
0.0368053
0.0368053
0.0368053
0.0368053
0.0368053
0.0368053
0.0368053
0.0368053
0.0368053
0.0368053
0.0368053
0.0368053
0.0368053
0.0368053
0.0368053
0.0368053
0.0368053
0.0368053
0.0368053
0.0368053
0.0368053
0.0368053
0.0368053
0.0368053
0.0368053
0.0368053
0.0368053
0.0368053
0.0368053
0.0368053
0.0368053
0.0368053
0.0368053
0.0368053
0.0368053
0.0368053
0.0368053
0.0368053
0.0368053
0.0368053
0.0368053
0.0368053
0.0368053
0.0368053
0.0368053
0.0368053
0.0368053
0.0368053
0.0368053
0.0368053
0.0368053
0.0368053
0.0368053
0.0368053
0.0368053
0.0368053
0.0368053
0.0368053
0.0368053
0.0368053
0.0368053
0.0368053
0.0368053
0.0368053
0.0368053
0.0368053
0.0368053
0.0368053
0.0368053
0.0368053
0.0368053
0.0368053
0.0368053
0.0368053
0.0368053
0.0368053
0.0368053
0.0368053
0.0368053
0.0368053
0.0368053
0.0368053
0.0368053
0.0368053
0.0368053
0.0368053
0.0368053
0.0368053
0.0368053
0.0368053
0.0368053
0.0368053
0.0368053
0.0368053
0.0368053
0.0368053
0.0368053
0.0368053
0.0368053
0.0368053
0.0368053
0.0368053
0.0368053
0.0368053
0.0368053
0.0368053
0.0368053
0.0368053
0.0368053
0.0368053
0.0368053
0.0368053
0.0368053
0.0368053
0.0368053
0.0368053
0.0368053
0.0368053
0.0368053
0.0368053
0.0368053
0.0368053
0.0368053
0.0368053
0.0368053
0.0368053
0.0368053
0.0368053
0.0368053
0.0368053
0.0368053
0.0368053
0.0368053
0.0368053
0.0368053
0.0368053
0.0368053
0.0368053
0.0368053
0.0368053
0.0368053
0.0368053
0.0368053
0.0368053
0.0368053
0.0368053
0.0368053
0.0368053
0.0368053
0.0368053
0.0368053
0.0368053
0.0368053
0.0368053
0.0368053
0.0368053
0.0368053
0.0368053
0.0368053
0.0368053
0.0368053
0.0368053
0.0368053
0.0368053
0.0368053
0.0368053
0.0368053
0.0368053
0.0368053
0.0368053
0.0368053
0.0368053
0.0368053
0.0368053
0.0368053
0.0368053
0.0368053
0.0368053
0.0368053
0.0368053
0.0368053
0.0368053
0.0368053
0.0368053
0.0368053
0.0368053
0.0368053
0.0368053
0.0368053
0.0368053
0.0368053
0.0368053
0.0368053
0.0368053
0.0368053
0.0368053
0.0368053
0.0368053
0.0368053
0.0368053
0.0368053
0.0368053
0.0368053
0.0368053
0.0368053
0.0368053
0.0368053
0.0368053
0.0368053
0.0368053
0.0368053
0.0368053
0.0368053
0.0368053
0.0368053
0.0368053
0.0368053
0.0368053
0.0368053
0.0368053
0.0368053
0.0368053
0.0368053
0.0368053
0.0368053
0.0368053
0.0368053
0.0368053
0.0368053
0.0368053
0.0368053
0.0368053
0.0368053
0.0368053
0.0368053
0.0368053
0.0368053
0.0368053
0.0368053
0.0368053
0.0368053
0.0368053
0.0368053
0.0368053
0.0368053
0.0368053
0.0368053
0.0368053
0.0368053
0.0368053
0.0368053
0.0368053
0.0368053
0.0368053
0.0368053
0.0368053
0.0368053
0.0368053
0.0368053
0.0368053
0.0368053
0.0368053
0.0368053
0.0368053
0.0368053
0.0368053
0.0368053
0.0368053
0.0368053
0.0368053
0.0368053
0.0368053
0.0368053
0.0368053
0.0368053
0.0368053
0.0368053
0.0368053
0.0368053
0.0368053
0.0368053
0.0368053
0.0368053
0.0368053
0.0368053
0.0368053
0.0368053
0.0368053
0.0368053
0.0368053
0.0368053
0.0368053
0.0368053
0.0368053
0.0368053
0.0368053
0.0368053
0.0368053
0.0368053
0.0368053
0.0368053
0.0368053
0.0368053
0.0368053
0.0368053
0.0368053
0.0368053
0.0368053
0.0368053
0.0368053
0.0368053
0.0368053
0.0368053
0.0368053
0.0368053
0.0368053
0.0368053
0.0368053
0.0368053
0.0368053
0.0368053
0.0368053
0.0368053
0.0368053
0.0368053
0.0368053
0.0368053
0.0368053
0.0368053
0.0368053
0.0368053
0.0368053
0.0368053
0.0368053
0.0368053
0.0368053
0.0368053
0.0368053
0.0368053
0.0368053
0.0368053
0.0368053
0.0368053
0.0368053
0.0368053
0.0368053
0.0368053
0.0368053
0.0368053
0.0368053
0.0368053
0.0368053
0.0368053
0.0368053
0.0368053
0.0368053
0.0368053
0.0368053
0.0368053
0.0368053
0.0368053
0.0368053
0.0368053
0.0368053
0.0368053
0.0368053
0.0368053
0.0368053
0.0368053
0.0368053
0.0368053
0.0368053
0.0368053
0.0368053
0.0368053
0.0368053
0.0368053
0.0368053
0.0368053
0.0368053
0.0368053
0.0368053
0.0368053
0.0368053
0.0368053
0.0368053
0.0368053
0.0368053
0.0368053
0.0368053
0.0368053
0.0368053
0.0368053
0.0368053
0.0368053
0.0368053
0.0368053
0.0368053
0.0368053
0.0368053
0.0368053
0.0368053
0.0368053
0.0368053
0.0368053
0.0368053
0.0368053
0.0368053
0.0368053
0.0368053
0.0368053
0.0368053
0.0368053
0.0368053
0.0368053
0.0368053
0.0368053
0.0368053
0.0368053
0.0368053
0.0368053
0.0368053
0.0368053
0.0368053
0.0368053
0.0368053
0.0368053
0.0368053
0.0368053
0.0368053
0.0368053
0.0368053
0.0368053
0.0368053
0.0368053
0.0368053
0.0368053
0.0368053
0.0368053
0.0368053
0.0368053
0.0368053
0.0368053
0.0368053
0.0368053
0.0368053
0.0368053
0.0368053
0.0368053
0.0368053
0.0368053
0.0368053
0.0368053
0.0368053
0.0368053
0.0368053
0.0368053
0.0368053
0.0368053
0.0368053
0.0368053
0.0368053
0.0368053
0.0368053
0.0368053
0.0368053
0.0368053
0.0368053
0.0368053
0.0368053
0.0368053
0.0368053
0.0368053
0.0368053
0.0368053
0.0368053
0.0368053
0.0368053
0.0368053
0.0368053
0.0368053
0.0368053
0.0368053
0.0368053
0.0368053
0.0368053
0.0368053
0.0368053
0.0368053
0.0368053
0.0368053
0.0368053
0.0368053
0.0368053
0.0368053
0.0368053
0.0368053
0.0368053
0.0368053
0.0368053
0.0368053
0.0368053
0.0368053
0.0368053
0.0368053
0.0368053
0.0368053
0.0368053
0.0368053
0.0368053
0.0368053
0.0368053
0.0368053
0.0368053
0.0368053
0.0368053
0.0368053
0.0368053
0.0368053
0.0368053
0.0368053
0.0368053
0.0368053
0.0368053
0.0368053
0.0368053
0.0368053
0.0368053
0.0368053
0.0368053
0.0368053
0.0368053
0.0368053
0.0368053
0.0368053
0.0368053
0.0368053
0.0368053
0.0368053
0.0368053
0.0368053
0.0368053
0.0368053
0.0368053
0.0368053
0.0368053
0.0368053
0.0368053
0.0368053
0.0368053
0.0368053
0.0368053
0.0368053
0.0368053
0.0368053
0.0368053
0.0368053
0.0368053
0.0368053
0.0368053
0.0368053
0.0368053
0.0368053
0.0368053
0.0368053
0.0368053
0.0368053
0.0368053
0.0368053
0.0368053
0.0368053
0.0368053
0.0368053
0.0368053
0.0368053
0.0368053
0.0368053
0.0368053
0.0368053
0.0368053
0.0368053
0.0368053
0.0368053
0.0368053
0.0368053
0.0368053
0.0368053
0.0368053
0.0368053
0.0368053
0.0368053
0.0368053
0.0368053
0.0368053
0.0368053
0.0368053
0.0368053
0.0368053
0.0368053
0.0368053
0.0368053
0.0368053
0.0368053
0.0368053
0.0368053
0.0368053
0.0368053
0.0368053
0.0368053
0.0368053
0.0368053
0.0368053
0.0368053
0.0368053
0.0368053
0.0368053
0.0368053
0.0368053
0.0368053
0.0368053
0.0368053
0.0368053
0.0368053
0.0368053
0.0368053
0.0368053
0.0368053
0.0368053
0.0368053
0.0368053
0.0368053
0.0368053
0.0368053
0.0368053
0.0368053
0.0368053
0.0368053
0.0368053
0.0368053
0.0368053
0.0368053
0.0368053
0.0368053
0.0368053
0.0368053
0.0368053
0.0368053
0.0368053
0.0368053
0.0368053
0.0368053
0.0368053
0.0368053
0.0368053
0.0368053
0.0368053
0.0368053
0.0368053
0.0368053
0.0368053
0.0368053
0.0368053
0.0368053
0.0368053
0.0368053
0.0368053
0.0368053
0.0368053
0.0368053
0.0368053
0.0368053
0.0368053
0.0368053
0.0368053
0.0368053
0.0368053
0.0368053
0.0368053
0.0368053
0.0368053
0.0368053
0.0368053
0.0368053
0.0368053
0.0368053
0.0368053
0.0368053
0.0368053
0.0368053
0.0368053
0.0368053
0.0368053
0.0368053
0.0368053
0.0368053
0.0368053
0.0368053
0.0368053
0.0368053
0.0368053
0.0368053
0.0368053
0.0368053
0.0368053
0.0368053
0.0368053
0.0368053
0.0368053
0.0368053
0.0368053
0.0368053
0.0368053
0.0368053
0.0368053
0.0368053
0.0368053
0.0368053
0.0368053
0.0368053
0.0368053
0.0368053
0.0368053
0.0368053
0.0368053
0.0368053
0.0368053
0.0368053
0.0368053
0.0368053
0.0368053
0.0368053
0.0368053
0.0368053
0.0368053
0.0368053
0.0368053
0.0368053
0.0368053
0.0368053
0.0368053
0.0368053
0.0368053
0.0368053
0.0368053
0.0368053
0.0368053
0.0368053
0.0368053
0.0368053
0.0368053
0.0368053
0.0368053
0.0368053
0.0368053
0.0368053
0.0368053
0.0368053
0.0368053
0.0368053
0.0368053
0.0368053
0.0368053
0.0368053
0.0368053
0.0368053
0.0368053
0.0368053
0.0368053
0.0368053
0.0368053
0.0368053
0.0368053
0.0368053
0.0368053
0.0368053
0.0368053
0.0368053
0.0368053
0.0368053
0.0368053
0.0368053
0.0368053
0.0368053
0.0368053
0.0368053
0.0368053
0.0368053
0.0368053
0.0368053
0.0368053
0.0368053
0.0368053
0.0368053
0.0368053
0.0368053
0.0368053
0.0368053
0.0368053
0.0368053
0.0368053
0.0368053
0.0368053
0.0368053
0.0368053
0.0368053
0.0368053
0.0368053
0.0368053
0.0368053
0.0368053
0.0368053
0.0368053
0.0368053
0.0368053
0.0368053
0.0368053
0.0368053
0.0368053
0.0368053
0.0368053
0.0368053
0.0368053
0.0368053
0.0368053
0.0368053
0.0368053
0.0368053
0.0368053
0.0368053
0.0368053
0.0368053
0.0368053
0.0368053
0.0368053
0.0368053
0.0368053
0.0368053
0.0368053
0.0368053
0.0368053
0.0368053
0.0368053
0.0368053
0.0368053
0.0368053
0.0368053
0.0368053
0.0368053
0.0368053
0.0368053
0.0368053
0.0368053
0.0368053
0.0368053
0.0368053
0.0368053
0.0368053
0.0368053
0.0368053
0.0368053
0.0368053
0.0368053
0.0368053
0.0368053
0.0368053
0.0368053
0.0368053
0.0368053
0.0368053
0.0368053
0.0368053
0.0368053
0.0368053
0.0368053
0.0368053
0.0368053
0.0368053
0.0368053
0.0368053
0.0368053
0.0368053
0.0368053
0.0368053
0.0368053
0.0368053
0.0368053
0.0368053
0.0368053
0.0368053
0.0368053
0.0368053
0.0368053
0.0368053
0.0368053
0.0368053
0.0368053
0.0368053
0.0368053
0.0368053
0.0368053
0.0368053
0.0368053
0.0368053
0.0368053
0.0368053
0.0368053
0.0368053
0.0368053
0.0368053
0.0368053
0.0368053
0.0368053
0.0368053
0.0368053
0.0368053
0.0368053
0.0368053
0.0368053
0.0368053
0.0368053
0.0368053
0.0368053
0.0368053
0.0368053
0.0368053
0.0368053
0.0368053
0.0368053
0.0368053
0.0368053
0.0368053
0.0368053
0.0368053
0.0368053
0.0368053
0.0368053
0.0368053
0.0368053
0.0368053
0.0368053
0.0368053
0.0368053
0.0368053
0.0368053
0.0368053
0.0368053
0.0368053
0.0368053
0.0368053
0.0368053
0.0368053
0.0368053
0.0368053
0.0368053
0.0368053
0.0368053
0.0368053
0.0368053
0.0368053
0.0368053
0.0368053
0.0368053
0.0368053
0.0368053
0.0368053
0.0368053
0.0368053
0.0368053
0.0368053
0.0368053
0.0368053
0.0368053
0.0368053
0.0368053
0.0368053
0.0368053
0.0368053
0.0368053
0.0368053
0.0368053
0.0368053
0.0368053
0.0368053
0.0368053
0.0368053
0.0368053
0.0368053
0.0368053
0.0368053
0.0368053
0.0368053
0.0368053
0.0368053
0.0368053
0.0368053
0.0368053
0.0368053
0.0368053
0.0368053
0.0368053
0.0368053
0.0368053
0.0368053
0.0368053
0.0368053
0.0368053
0.0368053
0.0368053
0.0368053
0.0368053
0.0368053
0.0368053
0.0368053
0.0368053
0.0368053
0.0368053
0.0368053
0.0368053
0.0368053
0.0368053
0.0368053
0.0368053
0.0368053
0.0368053
0.0368053
0.0368053
0.0368053
0.0368053
0.0368053
0.0368053
0.0368053
0.0368053
0.0368053
0.0368053
0.0368053
0.0368053
0.0368053
0.0368053
0.0368053
0.0368053
0.0368053
0.0368053
0.0368053
0.0368053
0.0368053
0.0368053
0.0368053
0.0368053
0.0368053
0.0368053
0.0368053
0.0368053
0.0368053
0.0368053
0.0368053
0.0368053
0.0368053
0.0368053
0.0368053
0.0368053
0.0368053
0.0368053
0.0368053
0.0368053
0.0368053
0.0368053
0.0368053
0.0368053
0.0368053
0.0368053
0.0368053
0.0368053
0.0368053
0.0368053
0.0368053
0.0368053
0.0368053
0.0368053
0.0368053
0.0368053
0.0368053
0.0368053
0.0368053
0.0368053
0.0368053
0.0368053
0.0368053
0.0368053
0.0368053
0.0368053
0.0368053
0.0368053
0.0368053
0.0368053
0.0368053
0.0368053
0.0368053
0.0368053
0.0368053
0.0368053
0.0368053
0.0368053
0.0368053
0.0368053
0.0368053
0.0368053
0.0368053
0.0368053
0.0368053
0.0368053
0.0368053
0.0368053
0.0368053
0.0368053
0.0368053
0.0368053
0.0368053
0.0368053
0.0368053
0.0368053
0.0368053
0.0368053
0.0368053
0.0368053
0.0368053
0.0368053
0.0368053
0.0368053
0.0368053
0.0368053
0.0368053
0.0368053
0.0368053
0.0368053
0.0368053
0.0368053
0.0368053
0.0368053
0.0368053
0.0368053
0.0368053
0.0368053
0.0368053
0.0368053
0.0368053
0.0368053
0.0368053
0.0368053
0.0368053
0.0368053
0.0368053
0.0368053
0.0368053
0.0368053
0.0368053
0.0368053
0.0368053
0.0368053
0.0368053
0.0368053
0.0368053
0.0368053
0.0368053
0.0368053
0.0368053
0.0368053
0.0368053
0.0368053
0.0368053
0.0368053
0.0368053
0.0368053
0.0368053
0.0368053
0.0368053
0.0368053
0.0368053
0.0368053
0.0368053
0.0368053
0.0368053
0.0368053
0.0368053
0.0368053
0.0368053
0.0368053
0.0368053
0.0368053
0.0368053
0.0368053
0.0368053
0.0368053
0.0368053
0.0368053
0.0368053
0.0368053
0.0368053
0.0368053
0.0368053
0.0368053
0.0368053
0.0368053
0.0368053
0.0368053
0.0368053
0.0368053
0.0368053
0.0368053
0.0368053
0.0368053
0.0368053
0.0368053
0.0368053
0.0368053
0.0368053
0.0368053
0.0368053
0.0368053
0.0368053
0.0368053
0.0368053
0.0368053
0.0368053
0.0368053
0.0368053
0.0368053
0.0368053
0.0368053
0.0368053
0.0368053
0.0368053
0.0368053
0.0368053
0.0368053
0.0368053
0.0368053
0.0368053
0.0368053
0.0368053
0.0368053
0.0368053
0.0368053
0.0368053
0.0368053
0.0368053
0.0368053
0.0368053
0.0368053
0.0368053
0.0368053
0.0368053
0.0368053
0.0368053
0.0368053
0.0368053
0.0368053
0.0368053
0.0368053
0.0368053
0.0368053
0.0368053
0.0368053
0.0368053
0.0368053
0.0368053
0.0368053
0.0368053
0.0368053
0.0368053
0.0368053
0.0368053
0.0368053
0.0368053
0.0368053
0.0368053
0.0368053
0.0368053
0.0368053
0.0368053
0.0368053
0.0368053
0.0368053
0.0368053
0.0368053
0.0368053
0.0368053
0.0368053
0.0368053
0.0368053
0.0368053
0.0368053
0.0368053
0.0368053
0.0368053
0.0368053
0.0368053
0.0368053
0.0368053
0.0368053
0.0368053
0.0368053
0.0368053
0.0368053
0.0368053
0.0368053
0.0368053
0.0368053
0.0368053
0.0368053
0.0368053
0.0368053
0.0368053
0.0368053
0.0368053
0.0368053
0.0368053
0.0368053
0.0368053
0.0368053
0.0368053
0.0368053
0.0368053
0.0368053
0.0368053
0.0368053
0.0368053
0.0368053
0.0368053
0.0368053
0.0368053
0.0368053
0.0368053
0.0368053
0.0368053
0.0368053
0.0368053
0.0368053
0.0368053
0.0368053
0.0368053
0.0368053
0.0368053
0.0368053
0.0368053
0.0368053
0.001012604
0.00100182
0.001005223
0.001012226
0.001024265
0.001045238
0.001077741
0.00109865
0.00112474
0.001132056
0.001127732
0.001120944
0.001114663
0.001109062
0.001104355
0.001100057
0.001096489
0.001093465
0.001027047
0.001006455
0.001009092
0.001015047
0.001026022
0.00104742
0.00107655
0.001102495
0.001123764
0.001136268
0.001131406
0.001123558
0.001116624
0.001110599
0.001105514
0.001101136
0.001097395
0.001094265
0.001030428
0.001010577
0.00102036
0.00102585
0.001037619
0.00106288
0.001091433
0.001112268
0.001128534
0.00113701
0.001133226
0.001125793
0.001118113
0.001111632
0.001106257
0.001101827
0.001097922
0.001094686
0.001032567
0.001015388
0.001030034
0.001045159
0.001063665
0.001088013
0.001105561
0.001119943
0.001129575
0.001131405
0.001133136
0.001127002
0.001118805
0.001111981
0.001106622
0.001101924
0.001098056
0.001094819
0.001035362
0.001018544
0.001036221
0.001071066
0.001114956
0.00109925
0.001110109
0.001118957
0.001124671
0.00112901
0.001127854
0.001127142
0.001118579
0.001111746
0.001106531
0.001101113
0.001097784
0.001094582
0.00103876
0.001014484
0.001026273
0.00104164
0.001089357
0.001106951
0.001101842
0.00111502
0.001116994
0.001122239
0.001123031
0.001123635
0.001117197
0.001110689
0.00110631
0.001100079
0.001097087
0.001093993
0.001042649
0.001009585
0.001017186
0.001025428
0.001040147
0.001099322
0.001101466
0.001110176
0.001108301
0.001113994
0.001117206
0.001117463
0.001114952
0.001108773
0.001104963
0.001098398
0.001096003
0.001093052
0.001046776
0.001006233
0.001012924
0.001019658
0.001028723
0.001054733
0.001124343
0.001105475
0.001100253
0.001107299
0.001108611
0.001112433
0.001111538
0.001106232
0.001103097
0.001096527
0.001094543
0.001091813
0.001049658
0.001008049
0.001013636
0.001018232
0.001024542
0.00104123
0.001102786
0.001120574
0.001095909
0.001101129
0.001105128
0.001106047
0.00110727
0.001103232
0.001100796
0.001094279
0.00109281
0.001090298
0.001052517
0.00101002
0.001015273
0.001018106
0.001022773
0.001034745
0.001073291
0.001152954
0.001099491
0.001098595
0.001098628
0.001101027
0.001102713
0.00109999
0.001098146
0.001091806
0.001090811
0.00108859
0.00105576
0.001011066
0.001015869
0.001017864
0.001021689
0.001030991
0.001056803
0.001175469
0.001105317
0.001092618
0.001092265
0.001098321
0.001099834
0.001096465
0.001095367
0.001089087
0.00108863
0.001086672
0.001058682
0.001012698
0.001016387
0.001017413
0.0010209
0.001028676
0.001048093
0.001123235
0.001111682
0.001090694
0.001092383
0.001093496
0.001095029
0.001092976
0.001092401
0.001086401
0.001086248
0.001084558
0.001061733
0.001013887
0.001016052
0.001017005
0.001020401
0.001027268
0.001043176
0.001092897
0.001127377
0.001088101
0.001085582
0.001087184
0.001090556
0.001089487
0.001089314
0.001083759
0.001083769
0.001082356
0.001065287
0.001013456
0.001017202
0.001017428
0.001020406
0.001026602
0.001040514
0.001079642
0.00112709
0.001085256
0.001081281
0.001082696
0.001085762
0.001086108
0.001086351
0.001080806
0.001081273
0.001080078
0.00108012
0.001027559
0.001022552
0.001018901
0.001021071
0.001026435
0.001039106
0.001072984
0.001116414
0.001085773
0.001077508
0.001078409
0.001081753
0.001082697
0.001083293
0.001077912
0.001078704
0.001077733
0.001084205
0.001035968
0.001027527
0.001020624
0.001021956
0.001026617
0.001038592
0.001069097
0.001105964
0.001085726
0.001074104
0.001075459
0.001078235
0.001079333
0.001080228
0.001075046
0.001076092
0.001075325
0.001089932
0.001022531
0.001037124
0.001020541
0.001022669
0.001026929
0.001038541
0.001067357
0.001095128
0.001084952
0.001071765
0.00107228
0.001074246
0.001075968
0.001077158
0.001072212
0.001073465
0.001072873
0.001096265
0.001022499
0.001058524
0.001023805
0.001022447
0.001027218
0.001038869
0.001065519
0.001086281
0.00108113
0.001068623
0.001068916
0.001070708
0.001072614
0.001074044
0.001069436
0.001070853
0.001070431
0.001103118
0.001020726
0.001033161
0.001025621
0.00102359
0.001026941
0.001038907
0.001063758
0.001077906
0.001075351
0.001065481
0.001065799
0.001067357
0.001069441
0.001070787
0.001066845
0.001068253
0.001067988
0.001110017
0.00101836
0.001025874
0.001028428
0.001024505
0.00102761
0.001038418
0.001061021
0.001070397
0.001069549
0.00106233
0.001062752
0.001064211
0.001066331
0.001066397
0.001064738
0.001065658
0.001065538
0.001116953
0.001016934
0.001021802
0.001029656
0.001025893
0.001027531
0.001038488
0.001057254
0.001063666
0.001064283
0.001059079
0.001059705
0.001061099
0.001062754
0.001062964
0.001063247
0.001062992
0.001063066
0.001124196
0.001016241
0.001018788
0.001030519
0.001025903
0.001028157
0.001038461
0.001051613
0.001058022
0.001059607
0.001055882
0.001056692
0.001058071
0.001059549
0.001060077
0.001060856
0.001060411
0.001060657
0.001131934
0.001015304
0.001016814
0.001031115
0.00102553
0.001027693
0.001037298
0.00104955
0.001051832
0.00105558
0.001052842
0.001053824
0.001055264
0.001056578
0.001057426
0.001058231
0.001057932
0.001058223
0.001140165
0.001014503
0.00101516
0.001031266
0.001024833
0.00102691
0.001035792
0.001044012
0.001048368
0.001049881
0.001049915
0.001050845
0.001052463
0.001053696
0.001054686
0.001055592
0.001055442
0.00105581
0.00114911
0.001013793
0.001013792
0.001030378
0.001023908
0.001025821
0.001033737
0.00103991
0.001043779
0.001046241
0.00104674
0.001047851
0.001049852
0.001051517
0.001051257
0.001052807
0.001052955
0.001053379
0.001158492
0.00101317
0.001012837
0.001028682
0.001022765
0.001024493
0.00103217
0.001037054
0.001038971
0.001041895
0.00104376
0.00104562
0.001047066
0.00105138
0.001049501
0.001050906
0.001050608
0.001050988
0.001168665
0.001012594
0.001012009
0.001026715
0.001021624
0.001023285
0.001030564
0.001032578
0.001034239
0.001037734
0.001040768
0.001043185
0.001045145
0.001047335
0.001044724
0.001047472
0.001048155
0.001048884
0.001179641
0.001012095
0.001011381
0.001024726
0.001020305
0.001022675
0.001026827
0.001028586
0.001030484
0.00103427
0.00103776
0.001040596
0.001043141
0.001044797
0.001043788
0.001045361
0.001045804
0.00104613
0.001191291
0.001011665
0.001010964
0.001023844
0.001018329
0.001021483
0.001023286
0.001024979
0.001027721
0.001031372
0.00103498
0.001038025
0.001040726
0.001041722
0.001041898
0.001043005
0.001043506
0.001044222
0.001204067
0.001011211
0.001010653
0.001031608
0.001013787
0.001019446
0.001020871
0.001021437
0.00102642
0.001028837
0.001032326
0.001035624
0.001038454
0.001039332
0.001040592
0.001040775
0.00104137
0.001045011
0.001217798
0.001010637
0.001009358
0.001018731
0.001012156
0.001021481
0.001019963
0.001018162
0.001029566
0.001025729
0.001029714
0.001033449
0.001036042
0.001037093
0.001038226
0.001038412
0.001038981
0.001039989
0.001232458
0.001009693
0.001007493
0.001014232
0.001012002
0.001015408
0.001017853
0.001018102
0.001019111
0.001023327
0.001027346
0.00103138
0.001034227
0.001034098
0.001035946
0.001036269
0.001036922
0.001037754
0.001248762
0.001008216
0.001006022
0.001006546
0.001014165
0.001013406
0.001015029
0.001016099
0.001018172
0.001022287
0.001026047
0.001029829
0.001033083
0.001033055
0.001033596
0.001034052
0.001035872
0.001033402
0.001267708
0.00100808
0.001006875
0.001006121
0.001008415
0.001012986
0.001013397
0.001015376
0.001017213
0.00101997
0.001024983
0.001028669
0.001030919
0.001030034
0.001031233
0.001031604
0.001031508
0.001031933
0.001324337
0.001007047
0.001007
0.001005278
0.001006254
0.001013561
0.001011088
0.001013404
0.001015173
0.001020028
0.001025241
0.001027661
0.001027029
0.001028918
0.001029344
0.00102968
0.001029859
0.001031477
0.001361926
0.001004897
0.001004401
0.001004512
0.001005515
0.001015688
0.00101188
0.001012381
0.001020026
0.001019287
0.001023656
0.001026262
0.001027757
0.001027051
0.001027228
0.001029735
0.001028112
0.00102988
0.001429903
0.001002919
0.001003071
0.001004264
0.001006138
0.001009157
0.001010642
0.001017263
0.001015542
0.001018253
0.001022111
0.001024109
0.001023259
0.001025172
0.001025075
0.001024373
0.001024133
0.001026541
0.001932599
0.001001496
0.001003293
0.001005207
0.001006043
0.001007569
0.001010189
0.001014288
0.00101621
0.001018849
0.001021483
0.001023168
0.001022564
0.001022534
0.001023021
0.001021904
0.001024591
0.00102486
0.003201906
0.001000961
0.001003952
0.001003332
0.00100485
0.001007198
0.001010394
0.00101434
0.001016458
0.001019287
0.001019888
0.001019353
0.001019601
0.001020177
0.001022121
0.001021221
0.001022235
0.001022891
0.005611113
0.001001872
0.001001473
0.001003379
0.001005741
0.001008566
0.001011826
0.001015354
0.001017318
0.00101861
0.001017881
0.001017195
0.00101771
0.001018108
0.001017938
0.001018881
0.001020099
0.001021052
0.0368053
0.001004246
0.001003177
0.001003268
0.001006064
0.001010227
0.001013617
0.001016408
0.001017242
0.001015521
0.00101578
0.001014572
0.00101582
0.001017028
0.001015367
0.001016841
0.001017603
0.001018718
0.0368053
0.001002858
0.001005564
0.001006043
0.00100803
0.001011317
0.001015036
0.001016479
0.00101406
0.001013577
0.001014027
0.001013184
0.00101359
0.00101373
0.001013791
0.001014984
0.001015787
0.001017011
0.0368053
0.001002556
0.001004035
0.001006923
0.001010276
0.001019422
0.001013236
0.001011927
0.001011792
0.001011625
0.001010127
0.001011921
0.001012039
0.001010993
0.001012644
0.001013365
0.001014541
0.001014313
0.0368053
0.001004075
0.001004
0.001005367
0.001009778
0.001014597
0.001010594
0.00100968
0.001009939
0.001010108
0.001009085
0.001009884
0.001009598
0.001010791
0.001011454
0.001012124
0.001012179
0.001013654
0.0368053
0.001003648
0.001003514
0.001003538
0.00101187
0.001010768
0.001009552
0.001008401
0.001007773
0.001008297
0.001008351
0.001008822
0.001008094
0.001009445
0.001010286
0.001010097
0.001011401
0.001012469
0.0368053
0.001002987
0.001001511
0.001002527
0.001005885
0.001007299
0.001007465
0.001006635
0.001006448
0.001006219
0.001006714
0.001007092
0.001007553
0.001008234
0.001008233
0.001009812
0.001010319
0.001010314
0.0368053
0.001007618
0.001000748
0.001002915
0.001003973
0.001005212
0.001005229
0.00100512
0.00100512
0.001005677
0.001005565
0.001005843
0.001006397
0.001006961
0.001007883
0.001007744
0.001009315
0.001010222
0.0368053
0.001087791
0.001001233
0.001002694
0.00100285
0.001003419
0.001003853
0.001003892
0.001004238
0.001004269
0.001004455
0.001004734
0.001005368
0.001006242
0.001006265
0.001008124
0.001007624
0.001009495
0.0368053
0.001238055
0.001001674
0.001001465
0.001002054
0.00100255
0.00100313
0.001003009
0.001002942
0.001004015
0.001003498
0.001004286
0.001004808
0.001004642
0.00100652
0.001005683
0.00100795
0.001007722
0.0368053
0.001677545
0.001002722
0.001000682
0.001001697
0.001002419
0.001003003
0.001003709
0.001003626
0.001004856
0.001004722
0.00100627
0.00100595
0.001008118
0.0368053
0.0368053
0.001002035
0.00100244
0.001003456
0.001003537
0.001004139
0.001005574
0.00100606
0.001006843
0.0368053
0.001002249
0.001002656
0.001003022
0.001004115
0.001004909
0.001005083
0.001006409
0.001003945
0.001002712
0.001003122
0.001004495
0.001004934
0.001005911
0.001003063
0.001003442
0.001003526
0.00100479
0.001005742
0.001002201
0.001002652
0.001003622
0.001004428
0.001005247
0.001002122
0.001002837
0.001003423
0.001004237
0.001005094
0.001002013
0.001002647
0.001003344
0.001004135
0.001004981
0.001001948
0.001002577
0.001003386
0.001004173
0.001004963
0.001001947
0.001002694
0.001003361
0.001004326
0.001005087
0.001002096
0.001002067
0.001002864
0.001003512
0.001004251
0.001005289
0.0368053
0.001002342
0.001002453
0.001003169
0.001003733
0.001004633
0.001005291
0.0368053
0.0368053
0.00100243
0.001002446
0.001002654
0.001003532
0.001004069
0.001005073
0.001005967
0.0368053
0.002183546
0.001003887
0.001001566
0.001002401
0.001002168
0.001002475
0.001003581
0.001003497
0.001004454
0.001004839
0.001006137
0.0368053
0.001336044
0.001001542
0.001001313
0.001001326
0.001001535
0.001001618
0.001001678
0.001002004
0.001002181
0.001002456
0.001002499
0.001003026
0.001003334
0.001004584
0.00100444
0.001005704
0.001006109
0.0368053
0.001106586
0.001001535
0.001001101
0.00100152
0.001001773
0.001001951
0.001002072
0.001002255
0.001002513
0.001002663
0.001003186
0.001003729
0.001003831
0.001004408
0.001005445
0.001006226
0.001006864
0.0368053
0.001035391
0.001000702
0.001001369
0.001001881
0.001002017
0.001002322
0.001002501
0.001002594
0.001002978
0.001003032
0.001003824
0.001003756
0.001005063
0.001004937
0.001005871
0.001006607
0.001007683
0.0368053
0.001005685
0.001000721
0.001001228
0.001001737
0.001002299
0.001002646
0.001002892
0.00100319
0.001003485
0.001003683
0.001003985
0.001004557
0.001004851
0.001006065
0.001006441
0.001007136
0.001007601
0.0368053
0.001003134
0.001001323
0.001001389
0.001002176
0.001002923
0.001003028
0.001003363
0.0010037
0.001004031
0.00100487
0.001004607
0.001005285
0.001005491
0.001006641
0.001006878
0.001007625
0.001009572
0.0368053
0.001003241
0.001002674
0.001002294
0.001002925
0.001003307
0.001003538
0.001003892
0.001004254
0.00100427
0.001004454
0.00100529
0.001006586
0.001006073
0.001006879
0.001007919
0.001008482
0.001009015
0.0368053
0.001004961
0.001003324
0.001002844
0.001003235
0.001003615
0.001004055
0.001004418
0.001004736
0.00100509
0.00100591
0.001005765
0.001006411
0.00100729
0.001007461
0.001008502
0.001009557
0.001010093
0.0368053
0.001005625
0.001003135
0.001004643
0.001004048
0.001003637
0.00100434
0.001004774
0.001005229
0.001005598
0.001006311
0.001006839
0.00100732
0.001008721
0.001008848
0.001009373
0.00101009
0.001011369
0.0368053
0.001007252
0.001005309
0.001003542
0.001003922