/*--------------------------------*- C++ -*----------------------------------*\
| =========                 |                                                 |
| \\      /  F ield         | OpenFOAM: The Open Source CFD Toolbox           |
|  \\    /   O peration     | Version:  2206                                  |
|   \\  /    A nd           | Website:  www.openfoam.com                      |
|    \\/     M anipulation  |                                                 |
\*---------------------------------------------------------------------------*/
FoamFile
{
    version     2.0;
    format      ascii;
    arch        "LSB;label=32;scalar=64";
    class       volScalarField;
    location    "1.8";
    object      muI;
}
// * * * * * * * * * * * * * * * * * * * * * * * * * * * * * * * * * * * * * //

dimensions      [0 0 0 0 0 0 0];

internalField   nonuniform List<scalar> 
13078
(
0.6300987
0.6300063
0.6300009
0.6300004
0.6300002
0.6300002
0.6300001
0.6300052
0.6300014
0.6300007
0.6300004
0.6300002
0.6300002
0.6300001
0.6300011
0.6300007
0.6300004
0.6300002
0.6300002
0.6300001
0.6300001
0.6300004
0.6300003
0.6300002
0.6300002
0.6300001
0.6300001
0.6300001
0.6300002
0.6300002
0.6300001
0.6300001
0.6300001
0.6300001
0.6300001
0.6300001
0.6300001
0.6300001
0.6300001
0.6300001
0.6300001
0.6300001
0.6300001
0.6300001
0.6300001
0.6300001
0.6300001
0.6300001
0.6300001
0.6300001
0.63
0.63
0.63
0.63
0.63
0.6300001
0.63
0.63
0.63
0.63
0.63
0.63
0.63
0.63
0.63
0.63
0.63
0.63
0.63
0.63
0.63
0.63
0.63
0.63
0.63
0.63
0.63
0.63
0.63
0.63
0.63
0.63
0.63
0.63
0.63
0.63
0.63
0.63
0.63
0.63
0.63
0.63
0.63
0.63
0.63
0.63
0.63
0.63
0.63
0.63
0.63
0.63
0.63
0.63
0.63
0.63
0.63
0.63
0.63
0.63
0.63
0.63
0.63
0.63
0.63
0.63
0.63
0.63
0.63
0.63
0.63
0.63
0.63
0.63
0.63
0.63
0.63
0.63
0.63
0.63
0.63
0.63
0.63
0.63
0.63
0.63
0.63
0.63
0.63
0.6300001
0.63
0.63
0.63
0.63
0.63
0.63
0.6300001
0.63
0.63
0.63
0.63
0.63
0.6300001
0.6300001
0.63
0.63
0.63
0.63
0.63
0.6300001
0.6300001
0.63
0.63
0.63
0.63
0.6300001
0.6300001
0.6300001
0.63
0.63
0.63
0.6300001
0.6300001
0.6300001
0.6300001
0.63
0.6300001
0.6300001
0.6300001
0.6300001
0.6300001
0.6300001
0.63
0.6300001
0.6300001
0.6300001
0.6300001
0.6300001
0.6300001
0.63
0.6300001
0.6300001
0.6300001
0.6300001
0.6300001
0.6300001
0.6300001
0.6300001
0.6300001
0.6300001
0.6300001
0.6300001
0.6300001
0.6300001
0.6300001
0.6300001
0.6300001
0.6300001
0.6300001
0.6300001
0.6300001
0.6300001
0.6300001
0.6300001
0.6300001
0.6300001
0.6300002
0.6300001
0.6300001
0.6300001
0.6300001
0.6300002
0.6300002
0.6300002
0.6300001
0.6300002
0.6300002
0.6300002
0.6300002
0.6300002
0.6300002
0.6300002
0.6300002
0.6300002
0.6300002
0.6300002
0.6300002
0.6300002
0.6300002
0.6300002
0.6300002
0.6300003
0.6300003
0.6300003
0.6300003
0.6300002
0.6300003
0.6300003
0.6300003
0.6300003
0.6300003
0.6300004
0.6300003
0.6300003
0.6300003
0.6300004
0.6300004
0.6300005
0.6300007
0.6300004
0.6300004
0.6300004
0.6300004
0.6300005
0.6300009
0.6300016
0.6300004
0.6300005
0.6300005
0.6300006
0.630001
0.6300016
0.6300027
0.6300005
0.6300006
0.6300007
0.630001
0.6300016
0.6300024
0.6300039
0.6300007
0.6300009
0.6300011
0.6300015
0.6300021
0.6300032
0.6300047
0.630001
0.6300012
0.6300014
0.6300018
0.6300025
0.6300037
0.6300053
0.6300015
0.6300014
0.6300015
0.6300019
0.6300027
0.630004
0.6300055
0.6300019
0.6300016
0.6300015
0.630002
0.6300031
0.6300044
0.6300056
0.6300021
0.6300018
0.6300018
0.6300024
0.6300036
0.6300048
0.6300059
0.6300024
0.6300021
0.6300022
0.6300031
0.6300043
0.6300053
0.6300061
0.6300028
0.6300026
0.6300028
0.6300039
0.6300051
0.6300059
0.6300065
0.6300033
0.6300032
0.6300036
0.6300047
0.6300059
0.6300066
0.6300071
0.6300041
0.6300041
0.6300045
0.6300056
0.6300065
0.6300067
0.6300071
0.6300051
0.630005
0.6300053
0.6300062
0.6300067
0.6300065
0.6300064
0.6300063
0.6300061
0.6300061
0.6300064
0.6300062
0.6300059
0.6300059
0.6300076
0.6300071
0.6300065
0.6300061
0.6300056
0.6300053
0.6300055
0.6300088
0.630008
0.6300068
0.6300058
0.6300051
0.6300052
0.6300058
0.6300098
0.6300087
0.6300069
0.6300055
0.6300048
0.6300053
0.630007
0.6300105
0.6300092
0.6300071
0.6300055
0.6300047
0.6300053
0.6300075
0.6300109
0.6300096
0.6300073
0.6300055
0.6300047
0.6300052
0.6300067
0.6300108
0.6300095
0.6300074
0.6300056
0.6300047
0.6300049
0.6300059
0.6300105
0.6300092
0.6300072
0.6300057
0.6300048
0.6300048
0.6300055
0.6300099
0.6300087
0.630007
0.6300058
0.6300049
0.6300048
0.6300054
0.630009
0.630008
0.6300067
0.6300059
0.6300051
0.6300047
0.6300052
0.630008
0.6300071
0.6300063
0.6300059
0.6300054
0.6300048
0.6300049
0.6300069
0.6300063
0.6300058
0.6300058
0.6300055
0.630005
0.6300049
0.6300059
0.6300055
0.6300052
0.6300055
0.6300055
0.6300052
0.6300048
0.6300049
0.6300047
0.6300046
0.6300051
0.6300053
0.630005
0.6300048
0.6300041
0.6300039
0.6300041
0.6300046
0.630005
0.6300049
0.6300047
0.6300033
0.6300033
0.6300035
0.6300042
0.6300048
0.6300047
0.6300043
0.6300027
0.6300027
0.630003
0.6300038
0.6300045
0.6300047
0.6300045
0.6300021
0.6300022
0.6300025
0.6300034
0.6300043
0.6300049
0.6300049
0.6300016
0.6300018
0.6300021
0.6300029
0.6300041
0.6300049
0.6300052
0.6300011
0.6300013
0.6300017
0.6300024
0.6300036
0.6300046
0.6300054
0.6300008
0.6300009
0.6300012
0.6300018
0.6300028
0.6300041
0.6300052
0.6300006
0.6300006
0.6300008
0.6300012
0.630002
0.6300031
0.6300044
0.6300005
0.6300005
0.6300005
0.6300007
0.6300011
0.630002
0.6300033
0.6300004
0.6300004
0.6300004
0.6300004
0.6300006
0.630001
0.6300019
0.6300003
0.6300003
0.6300003
0.6300003
0.6300004
0.6300005
0.6300009
0.6300003
0.6300003
0.6300003
0.6300003
0.6300003
0.6300003
0.6300004
0.6300002
0.6300002
0.6300002
0.6300002
0.6300003
0.6300003
0.6300003
0.6300002
0.6300002
0.6300002
0.6300002
0.6300002
0.6300002
0.6300002
0.6300001
0.6300002
0.6300002
0.6300002
0.6300002
0.6300002
0.6300002
0.6300001
0.6300001
0.6300001
0.6300001
0.6300002
0.6300002
0.6300002
0.6300001
0.6300001
0.6300001
0.6300001
0.6300001
0.6300001
0.6300002
0.6300001
0.6300001
0.6300001
0.6300001
0.6300001
0.6300001
0.6300001
0.6300001
0.6300001
0.6300001
0.6300001
0.6300001
0.6300001
0.6300001
0.63
0.6300001
0.6300001
0.6300001
0.6300001
0.6300001
0.6300001
0.63
0.6300001
0.6300001
0.6300001
0.6300001
0.6300001
0.6300001
0.63
0.6300001
0.6300001
0.6300001
0.6300001
0.6300001
0.6300001
0.63
0.63
0.63
0.6300001
0.6300001
0.6300001
0.6300001
0.63
0.63
0.63
0.63
0.6300001
0.6300001
0.6300001
0.63
0.63
0.63
0.63
0.63
0.6300001
0.6300001
0.63
0.63
0.63
0.63
0.63
0.6300001
0.6300001
0.63
0.63
0.63
0.63
0.63
0.63
0.6300001
0.63
0.63
0.63
0.63
0.63
0.63
0.6300001
0.63
0.63
0.63
0.63
0.63
0.63
0.6300001
0.63
0.63
0.63
0.63
0.63
0.63
0.63
0.63
0.63
0.63
0.63
0.63
0.63
0.63
0.63
0.63
0.63
0.63
0.63
0.63
0.63
0.63
0.63
0.63
0.63
0.63
0.63
0.63
0.63
0.63
0.63
0.63
0.63
0.63
0.63
0.63
0.63
0.63
0.63
0.63
0.63
0.63
0.63
0.63
0.63
0.63
0.63
0.63
0.63
0.63
0.63
0.63
0.63
0.63
0.63
0.63
0.63
0.63
0.63
0.63
0.63
0.63
0.63
0.63
0.63
0.63
0.63
0.63
0.63
0.63
0.63
0.63
0.63
0.63
0.63
0.63
0.63
0.63
0.63
0.63
0.63
0.63
0.63
0.63
0.6300001
0.63
0.63
0.63
0.63
0.63
0.6300001
0.6300001
0.6300001
0.6300001
0.6300001
0.6300001
0.6300001
0.6300001
0.6300001
0.6300001
0.6300001
0.6300001
0.6300001
0.6300001
0.6300001
0.6300002
0.6300002
0.6300001
0.6300001
0.6300001
0.6300001
0.6300001
0.6300004
0.6300003
0.6300002
0.6300002
0.6300001
0.6300001
0.6300001
0.6300011
0.6300006
0.6300004
0.6300002
0.6300002
0.6300001
0.6300001
0.6300048
0.6300014
0.6300007
0.6300003
0.6300002
0.6300002
0.6300001
0.6300001
0.6300001
0.6300001
0.6300001
0.6300001
0.63
0.6300001
0.6300001
0.6300001
0.6300001
0.6300001
0.6300001
0.63
0.6300001
0.6300001
0.6300001
0.6300001
0.6300001
0.6300001
0.63
0.6300001
0.6300001
0.6300001
0.6300001
0.6300001
0.6300001
0.63
0.6300001
0.6300001
0.6300001
0.6300001
0.6300001
0.6300001
0.6300001
0.6300001
0.6300001
0.6300001
0.6300001
0.6300001
0.6300001
0.6300001
0.6300001
0.6300001
0.6300001
0.6300001
0.6300001
0.6300001
0.6300001
0.6300001
0.6300001
0.6300001
0.6300001
0.6300001
0.6300001
0.6300001
0.6300001
0.6300001
0.6300001
0.6300001
0.6300001
0.6300001
0.6300001
0.6300001
0.63
0.6300001
0.6300001
0.6300001
0.6300001
0.6300001
0.6300001
0.63
0.6300001
0.6300001
0.6300001
0.6300001
0.6300001
0.6300001
0.63
0.6300001
0.6300001
0.63
0.6300001
0.6300001
0.6300001
0.63
0.6300001
0.6300001
0.63
0.6300001
0.6300001
0.6300001
0.63
0.6300001
0.6300001
0.63
0.6300001
0.6300001
0.6300001
0.63
0.6300001
0.6300001
0.6300001
0.6300001
0.6300001
0.6300001
0.63
0.6300001
0.6300001
0.6300001
0.6300001
0.6300001
0.6300001
0.6300001
0.6300001
0.6300001
0.6300001
0.6300001
0.6300001
0.6300001
0.6300001
0.6300001
0.6300001
0.6300001
0.6300001
0.6300001
0.6300001
0.6300001
0.6300001
0.6300001
0.6300001
0.6300001
0.6300001
0.6300001
0.6300001
0.6300001
0.6300001
0.6300001
0.6300001
0.6300001
0.6300001
0.6300001
0.6300001
0.6300001
0.6300001
0.6300001
0.6300001
0.6300001
0.6300001
0.6300001
0.6300001
0.6300001
0.6300001
0.6300001
0.6300002
0.6300001
0.6300001
0.6300001
0.6300001
0.6300001
0.6300001
0.6300002
0.6300001
0.6300001
0.6300001
0.6300001
0.6300001
0.6300001
0.6300002
0.6300001
0.6300001
0.6300001
0.6300001
0.6300001
0.6300001
0.6300002
0.6300001
0.6300001
0.6300001
0.6300001
0.6300001
0.6300001
0.6300002
0.6300001
0.6300001
0.6300001
0.6300001
0.6300001
0.6300001
0.6300003
0.6300001
0.6300001
0.6300001
0.6300001
0.6300001
0.6300001
0.6300003
0.6300001
0.6300001
0.6300001
0.6300001
0.6300001
0.6300001
0.6300004
0.6300002
0.6300001
0.6300002
0.6300002
0.6300002
0.6300002
0.6300005
0.6300002
0.6300002
0.6300002
0.6300002
0.6300002
0.6300002
0.6300009
0.6300002
0.6300002
0.6300002
0.6300002
0.6300002
0.6300002
0.6300015
0.6300002
0.6300002
0.6300002
0.6300003
0.6300003
0.6300004
0.6300032
0.6300003
0.6300002
0.6300003
0.6300004
0.6300006
0.6300011
0.6300081
0.6300003
0.6300003
0.6300005
0.6300007
0.6300012
0.6300034
0.6300141
0.6300007
0.6300007
0.6300011
0.6300013
0.6300022
0.6300055
0.6300119
0.6300015
0.6300017
0.6300024
0.6300026
0.6300031
0.6300058
0.6300069
0.630003
0.6300035
0.6300043
0.6300039
0.6300048
0.63001
0.6300082
0.6300048
0.6300058
0.6300065
0.6300047
0.630007
0.6300219
0.6300181
0.6300067
0.6300083
0.6300082
0.6300046
0.6300137
0.6300504
0.6300597
0.6300082
0.6300104
0.6300102
0.6300044
0.6300374
0.6301066
0.6301468
0.6300089
0.6300125
0.6300121
0.6300033
0.6300764
0.630108
0.6301299
0.6300093
0.6300134
0.6300143
0.6300013
0.6300923
0.630085
0.6300588
0.6300095
0.6300139
0.6300138
0.6300109
0.6301558
0.6301381
0.6301813
0.630009
0.6300137
0.630011
0.6300391
0.6303063
0.6301874
0.6302007
0.6300092
0.6300139
0.6300095
0.6301602
0.6302863
0.6301413
0.6301852
0.6300099
0.630015
0.6300105
0.6302628
0.6301937
0.63012
0.6301285
0.6300105
0.6300153
0.6300134
0.6300846
0.6303456
0.6301147
0.6300791
0.6300105
0.630016
0.6300152
0.630036
0.6303234
0.6301768
0.6300613
0.6300101
0.6300153
0.63002
0.6300261
0.6302955
0.6303806
0.6301748
0.6300094
0.6300128
0.6300124
0.6300438
0.6303762
0.6303692
0.6301155
0.6300085
0.6300112
0.6300126
0.6300613
0.6301002
0.6303904
0.6301342
0.6300069
0.6300066
0.6300765
0.6301432
0.6301183
0.6300669
0.6301416
0.6300124
0.6300309
0.6301791
0.6300583
0.6300901
0.6301508
0.6302484
0.6300159
0.6300538
0.6300828
0.6300326
0.6300489
0.6302138
0.6311023
0.6300111
0.6300307
0.6300691
0.6300466
0.6300715
0.630207
0.6300084
0.6300143
0.63004
0.6301277
0.6300537
0.630124
0.6300083
0.630011
0.6300143
0.6300966
0.6301192
0.6301221
0.6300088
0.630014
0.6300068
0.6300731
0.6300788
0.63011
0.6302735
0.6300084
0.630014
0.6300036
0.6300525
0.6300637
0.630092
0.6302606
0.630008
0.6300125
0.6300084
0.6300309
0.6300324
0.6303146
0.6301049
0.6300078
0.6300137
0.6300155
0.6300265
0.6302904
0.630345
0.6300449
0.6300075
0.6300133
0.6300169
0.6300437
0.6304365
0.6302376
0.6300844
0.6300073
0.6300135
0.6300175
0.630047
0.6303929
0.6301368
0.6300616
0.6300068
0.6300124
0.6300156
0.6300668
0.6303403
0.6301
0.6300616
0.6300065
0.6300119
0.630014
0.6300876
0.6303241
0.6301582
0.6301229
0.6300063
0.6300117
0.6300125
0.6300921
0.6302396
0.6302399
0.6302056
0.6300067
0.6300123
0.6300129
0.6300748
0.6301215
0.6301705
0.6301515
0.6300075
0.6300134
0.6300146
0.6300544
0.6300912
0.6300859
0.6301197
0.6300077
0.6300131
0.6300152
0.6300193
0.6300967
0.6300619
0.630071
0.6300074
0.6300116
0.6300107
0.6300087
0.6300781
0.6300659
0.6301087
0.6300067
0.6300101
0.6300065
0.6300049
0.6300375
0.6300915
0.6301277
0.6300052
0.6300081
0.6300055
0.6300036
0.6300145
0.6300449
0.6300715
0.6300033
0.6300057
0.6300048
0.6300035
0.630009
0.6300272
0.6300284
0.6300017
0.6300032
0.6300031
0.6300028
0.6300057
0.6300171
0.6300176
0.6300007
0.6300014
0.6300016
0.6300016
0.6300027
0.6300075
0.630006
0.6300003
0.6300005
0.6300007
0.6300008
0.6300014
0.6300039
0.6300056
0.6300003
0.6300003
0.6300003
0.6300005
0.6300008
0.6300021
0.6300106
0.6300002
0.6300003
0.6300003
0.6300003
0.6300004
0.6300008
0.6300074
0.6300002
0.6300002
0.6300002
0.6300002
0.6300003
0.6300004
0.630004
0.6300002
0.6300002
0.6300002
0.6300002
0.6300002
0.6300002
0.630002
0.6300002
0.6300002
0.6300002
0.6300002
0.6300002
0.6300002
0.6300012
0.6300001
0.6300002
0.6300001
0.6300001
0.6300002
0.6300002
0.6300007
0.6300001
0.6300002
0.6300001
0.6300001
0.6300001
0.6300001
0.6300005
0.6300001
0.6300001
0.6300001
0.6300001
0.6300001
0.6300001
0.6300004
0.6300001
0.6300001
0.6300001
0.6300001
0.6300001
0.6300001
0.6300003
0.6300001
0.6300001
0.6300001
0.6300001
0.6300001
0.6300001
0.6300003
0.6300001
0.6300001
0.6300001
0.6300001
0.6300001
0.6300001
0.6300002
0.6300001
0.6300001
0.6300001
0.6300001
0.6300001
0.6300001
0.6300002
0.6300001
0.6300001
0.6300001
0.6300001
0.6300001
0.6300001
0.6300002
0.6300001
0.6300001
0.6300001
0.6300001
0.6300001
0.6300001
0.6300002
0.6300001
0.6300001
0.6300001
0.6300001
0.6300001
0.6300001
0.6300001
0.6300001
0.6300001
0.6300001
0.6300001
0.6300001
0.6300001
0.6300001
0.6300001
0.6300001
0.6300001
0.6300001
0.6300001
0.6300001
0.6300001
0.6300001
0.6300001
0.6300001
0.6300001
0.6300001
0.6300001
0.6300001
0.6300001
0.6300001
0.6300001
0.6300001
0.6300001
0.6300001
0.6300001
0.63
0.6300001
0.6300001
0.6300001
0.6300001
0.6300001
0.6300001
0.63
0.6300001
0.6300001
0.6300001
0.63
0.6300001
0.6300001
0.63
0.6300001
0.6300001
0.6300001
0.63
0.6300001
0.6300001
0.63
0.6300001
0.6300001
0.6300001
0.63
0.6300001
0.6300001
0.63
0.63
0.6300001
0.6300001
0.63
0.6300001
0.6300001
0.63
0.6300001
0.6300001
0.6300001
0.63
0.6300001
0.6300001
0.63
0.6300001
0.6300001
0.6300001
0.63
0.6300001
0.6300001
0.63
0.6300001
0.6300001
0.6300001
0.63
0.6300001
0.6300001
0.6300001
0.6300001
0.6300001
0.6300001
0.6300001
0.6300001
0.6300001
0.6300001
0.6300001
0.6300001
0.6300001
0.6300001
0.6300001
0.6300001
0.6300001
0.6300001
0.6300001
0.6300001
0.6300001
0.6300001
0.6300001
0.6300001
0.6300001
0.6300001
0.6300001
0.6300001
0.6300001
0.6300001
0.6300001
0.6300001
0.6300001
0.6300001
0.6300001
0.63
0.6300001
0.6300001
0.6300001
0.6300001
0.6300001
0.6300001
0.63
0.6300001
0.6300001
0.6300001
0.6300001
0.6300001
0.6300001
0.63
0.6300001
0.6300001
0.6300001
0.6300001
0.6300001
0.6300001
0.63
0.6300001
1.123755
1.081415
1.005297
0.8971695
0.8001013
0.7308388
0.6910163
0.6785568
0.6686702
0.6665786
0.6677869
0.6698522
0.6719739
0.6740648
0.6759889
0.6778977
0.6796056
0.6811508
1.123177
0.9820204
0.9387583
0.8669798
0.791107
0.7266509
0.691919
0.6767958
0.6689676
0.6654737
0.6667553
0.6690307
0.6712875
0.6734704
0.6754998
0.6774037
0.6791606
0.6807328
1.123031
0.917862
0.8237565
0.7919496
0.7486694
0.7045436
0.6822439
0.6728432
0.6675567
0.6652859
0.666265
0.6683548
0.6707815
0.6730803
0.6751914
0.6770929
0.6789051
0.6805155
1.123006
0.8637215
0.7735583
0.7309965
0.7036828
0.6841927
0.6754803
0.6701757
0.6672624
0.6667558
0.6662889
0.6679985
0.6705504
0.6729498
0.6750417
0.6770495
0.678841
0.6804475
1.123009
0.83686
0.7526183
0.6964397
0.6718701
0.6782734
0.6736582
0.6704997
0.6686911
0.6674215
0.6677516
0.6679579
0.6706255
0.6730377
0.675079
0.6774142
0.6789718
0.6805694
1.123019
0.8725331
0.7898931
0.7385667
0.68341
0.6749075
0.6770858
0.6718471
0.6711607
0.669441
0.6691935
0.669007
0.6710913
0.6734365
0.6751696
0.6778874
0.6793112
0.6808741
1.123045
0.9315691
0.8477263
0.794048
0.7421177
0.6782398
0.6772548
0.6736325
0.6743649
0.6722132
0.6710882
0.671001
0.6718711
0.6741783
0.675731
0.678677
0.679848
0.6813693
1.123285
0.9860728
0.8891229
0.8286433
0.7788855
0.7147919
0.6687905
0.6755158
0.6778072
0.6747662
0.6742422
0.6727822
0.6731153
0.6752019
0.6765318
0.6795869
0.6805894
0.6820361
1.123239
0.9548681
0.8813309
0.8392741
0.7986219
0.7395213
0.6766678
0.6699713
0.6798947
0.677407
0.6756615
0.6752782
0.6747779
0.6764729
0.677558
0.6807259
0.6814982
0.682875
1.123337
0.9254402
0.8648114
0.8402569
0.8084911
0.757067
0.6945292
0.6616803
0.6781609
0.678583
0.6785673
0.6774529
0.6767
0.6779286
0.6787975
0.68204
0.682588
0.6838537
1.123387
0.9114644
0.8592432
0.8421838
0.8150687
0.76989
0.7119348
0.6576827
0.6755821
0.6816011
0.681791
0.6787137
0.6780007
0.6796173
0.6801681
0.6835651
0.68383
0.6849963
1.123406
0.8916849
0.8545937
0.8458426
0.82014
0.7790822
0.7254257
0.6691303
0.6730613
0.6826533
0.6817272
0.6811348
0.6803398
0.6814098
0.6817174
0.6851616
0.6852553
0.6863125
1.123416
0.8786729
0.8575817
0.8492497
0.8234776
0.7852441
0.7351308
0.6814518
0.6678895
0.6841405
0.6856671
0.6846864
0.6827304
0.6833351
0.6834344
0.6868265
0.6868196
0.6877516
1.12342
0.8832695
0.8475931
0.8457142
0.8234388
0.7883273
0.741226
0.6896284
0.667973
0.6858706
0.6884809
0.6875245
0.6855553
0.6853415
0.685192
0.6888088
0.6884863
0.6893184
1.123272
0.7839362
0.8097929
0.8341596
0.8190177
0.7891203
0.7447311
0.6947868
0.6713601
0.6855482
0.6911906
0.6905215
0.688158
0.6875235
0.6871301
0.6908886
0.6903049
0.6910224
1.123343
0.7533592
0.7840785
0.8219735
0.8134073
0.7882584
0.7460642
0.6982265
0.6753125
0.6855772
0.6938583
0.6927695
0.6906496
0.6898495
0.6892125
0.6930974
0.6922733
0.6928753
1.123318
0.8099236
0.7500395
0.8225267
0.8091018
0.7867991
0.7461966
0.6998858
0.6802897
0.6860623
0.6958278
0.6953842
0.6937421
0.69237
0.6914552
0.6954426
0.6943847
0.6948797
1.123292
0.8101146
0.7097004
0.802606
0.8104248
0.7854731
0.7453404
0.7017271
0.6852348
0.6885847
0.698671
0.6983958
0.6967579
0.6950988
0.6939073
0.6979125
0.6966293
0.6970061
1.123264
0.8212964
0.7621957
0.79308
0.8038046
0.7867451
0.7452429
0.7035824
0.6908936
0.6928548
0.7017661
0.7014401
0.6998857
0.6979077
0.6966872
0.7003895
0.6990212
0.6992747
1.123238
0.8382927
0.791833
0.7801372
0.7988186
0.7837057
0.7465223
0.7066617
0.6970364
0.6978084
0.7051581
0.7046861
0.703096
0.7009021
0.7008353
0.7025387
0.7015845
0.701707
1.123213
0.8498708
0.8143641
0.7750559
0.791737
0.7840602
0.7463373
0.7113377
0.7036819
0.7030192
0.7090046
0.7082347
0.7065708
0.7046829
0.7044503
0.7041393
0.7044197
0.7043374
1.123187
0.8559087
0.8350123
0.7716759
0.7916874
0.7813026
0.7464085
0.7194853
0.7103402
0.7083543
0.7131831
0.7120841
0.7102771
0.708425
0.7077835
0.7068552
0.707383
0.7070901
1.123159
0.8645381
0.8508785
0.7694288
0.7935348
0.7833358
0.7495564
0.7228759
0.7191392
0.7136006
0.7175769
0.716109
0.7140405
0.7122367
0.7111124
0.7100729
0.7104556
0.710082
1.12313
0.8723738
0.8658896
0.7688675
0.7970933
0.7868904
0.7538805
0.7333497
0.724935
0.722315
0.7222591
0.7207186
0.7181575
0.7162969
0.7148596
0.713584
0.713792
0.7132815
1.123097
0.8796984
0.8796672
0.7722209
0.8020415
0.7920904
0.7602868
0.7427029
0.7338412
0.7288702
0.72792
0.7258626
0.7223653
0.719637
0.7200531
0.7176309
0.7174055
0.7167678
1.123064
0.8864435
0.8901106
0.7790562
0.8085355
0.7988829
0.7656076
0.7502354
0.7450777
0.7379816
0.7338809
0.7300793
0.7273067
0.7198553
0.7229594
0.7206196
0.7211059
0.7204868
1.123027
0.892954
0.8997555
0.7878002
0.8154787
0.8055261
0.771505
0.7641818
0.7586647
0.7483556
0.7406137
0.7351128
0.7310255
0.7268071
0.7318773
0.7265543
0.7253146
0.724026
1.122987
0.8988132
0.9074694
0.7976532
0.8241272
0.8090663
0.787277
0.7794633
0.7718107
0.7585635
0.7482865
0.7410275
0.7352084
0.7317277
0.7338203
0.7305931
0.7297187
0.7290839
1.122945
0.9040536
0.912781
0.802392
0.8385195
0.8163658
0.8055186
0.7963394
0.7832128
0.76848
0.7563382
0.747569
0.7407142
0.7383769
0.7379744
0.7355036
0.7344221
0.7329111
1.122899
0.9097651
0.91686
0.7676176
0.8797191
0.8301578
0.8203319
0.8166626
0.7891913
0.7784095
0.765058
0.7543815
0.7464257
0.7441533
0.7410357
0.7405969
0.7391924
0.7312942
1.122848
0.917257
0.93485
0.8354427
0.8980015
0.8163811
0.8264905
0.8398193
0.7754185
0.7925468
0.774824
0.7612327
0.7531409
0.7501267
0.7470321
0.7465378
0.7450522
0.7425083
1.122791
0.9302679
0.9639824
0.8750965
0.8998416
0.8635244
0.8422672
0.8402916
0.8326036
0.8052883
0.7848926
0.7684499
0.7587019
0.7591138
0.7534246
0.7524771
0.7506068
0.7483034
1.122734
0.9525163
0.9899727
0.9803899
0.8757795
0.883805
0.8671549
0.8571634
0.8397463
0.8113858
0.790985
0.7743661
0.7624576
0.7625519
0.7607474
0.759262
0.753642
0.7613893
1.122625
0.9547258
0.9745522
0.9881271
0.9490765
0.8884335
0.883901
0.8638306
0.8474995
0.8264399
0.796315
0.7791127
0.7701606
0.7735584
0.768989
0.7676335
0.767982
0.7664482
1.122378
0.9722809
0.9723861
1.004212
0.985689
0.8821324
0.9111868
0.883826
0.8657616
0.8260375
0.7949956
0.7834809
0.7863388
0.7780712
0.7763153
0.7749596
0.7742479
0.7680945
1.121988
1.013034
1.022036
1.019731
0.9995939
0.8609118
0.9013127
0.8953461
0.8260497
0.8313156
0.8034354
0.7899456
0.7830518
0.7862398
0.785426
0.7747398
0.7814943
0.7741668
1.121614
1.056549
1.05131
1.024926
0.9878233
0.9378043
0.9170022
0.8470796
0.8622663
0.839109
0.812453
0.8009419
0.8056733
0.7953475
0.7958425
0.799521
0.8008116
0.7886166
1.119473
1.09441
1.046216
1.005629
0.9895853
0.9627128
0.9231065
0.8745217
0.856166
0.8345507
0.8163687
0.806196
0.8097239
0.8099023
0.8070445
0.8137311
0.7983637
0.7969546
1.117501
1.111091
1.031621
1.045349
1.012768
0.9689735
0.9203168
0.8739939
0.8539671
0.8313137
0.8270165
0.8308315
0.8290469
0.825005
0.812392
0.8180468
0.8116978
0.807796
0.9322736
1.10551
1.090234
1.044265
0.9952517
0.9467293
0.9019684
0.8640409
0.8466247
0.8363612
0.842042
0.8476479
0.8434146
0.8402432
0.8415921
0.8343148
0.8255422
0.819139
0.638925
1.118175
1.048888
1.046781
0.9891953
0.9225923
0.8815284
0.854409
0.8472558
0.8624689
0.8600644
0.8716468
0.8596909
0.8490574
0.8639137
0.8506435
0.8442824
0.8355367
0.6326078
1.120586
0.9986523
0.9895699
0.9551869
0.9082755
0.867088
0.8537826
0.8768668
0.8819576
0.8772123
0.8862384
0.8818236
0.8803262
0.8796841
0.8675862
0.8600018
0.8491996
0.6304895
1.122498
1.029815
0.9737274
0.9219236
0.830332
0.8856562
0.9007401
0.9023817
0.9044247
0.923957
0.900812
0.8993939
0.912401
0.8923102
0.8842477
0.8719608
0.8742679
0.6305149
1.122485
1.030578
1.002471
0.928822
0.8713965
0.917634
0.930215
0.9265699
0.9242245
0.9388752
0.9273371
0.9313807
0.9150324
0.9065543
0.8983739
0.8977249
0.881135
0.6302503
1.123199
1.041245
1.040699
0.901426
0.915332
0.932045
0.9492957
0.9593476
0.950937
0.9500783
0.9428141
0.9541503
0.9335858
0.9217775
0.9243768
0.9072094
0.894325
0.6301882
1.123355
1.089272
1.064079
0.9925367
0.9672499
0.9644501
0.9788015
0.9821484
0.986326
0.9773873
0.9707833
0.9629883
0.9519252
0.9519395
0.9283407
0.9213303
0.9214072
0.6302323
1.122882
1.10937
1.054906
1.031156
1.005533
1.005178
1.007354
1.00735
0.9964762
0.9986255
0.9933196
0.9830741
0.9730644
0.9575507
0.9598291
0.9354747
0.9226506
0.6303059
1.119716
1.098376
1.060097
1.056432
1.043381
1.033764
1.032911
1.025476
1.024829
1.020913
1.015148
1.002449
0.9858993
0.9854797
0.9536673
0.9618021
0.9328661
0.6301115
1.115765
1.094941
1.090492
1.075595
1.063534
1.049944
1.05274
1.054282
1.030243
1.041599
1.024455
1.013622
1.017028
0.9808549
0.9963723
0.9564761
0.9601784
0.6301416
1.119006
1.111895
1.11155
1.084528
1.066667
1.05286
1.036914
1.038748
1.012653
1.015377
0.9853916
0.9913158
0.9537729
0.6301397
0.6499748
1.076047
1.066162
1.042541
1.040729
1.027584
0.9984651
0.9892567
0.9751132
0.6300876
1.070784
1.061012
1.05243
1.028108
1.011591
1.00808
0.9828632
1.031763
1.059683
1.050115
1.020071
1.011081
0.9920527
1.051478
1.042855
1.040968
1.013989
0.9952332
1.071977
1.06109
1.038834
1.021481
1.004827
1.073895
1.056741
1.043292
1.025502
1.007869
1.076597
1.061206
1.045061
1.027681
1.01013
1.078221
1.062889
1.044123
1.026872
1.010498
1.078251
1.06011
1.04469
1.023622
1.008013
1.074551
1.07526
1.0561
1.041292
1.025198
1.004012
0.6300185
1.068542
1.065844
1.049053
1.0364
1.017219
1.003966
0.6301458
0.649666
1.066414
1.066011
1.061057
1.040844
1.029077
1.008283
0.9909939
0.630213
1.120044
1.102106
1.08785
1.067099
1.072783
1.06532
1.039742
1.041637
1.020927
1.01299
0.9878338
0.6307527
1.111327
1.110733
1.094572
1.094023
1.088653
1.08652
1.084991
1.076812
1.072463
1.06578
1.064751
1.052336
1.045297
1.018224
1.021223
0.9959655
0.988346
0.6318118
1.108612
1.091969
1.099927
1.089021
1.082601
1.078133
1.075136
1.070658
1.064404
1.060826
1.048648
1.036478
1.034241
1.021892
1.000953
0.9861975
0.9747578
0.6318032
1.11798
1.110919
1.092921
1.079877
1.07651
1.069024
1.064709
1.062488
1.053451
1.052208
1.0344
1.035885
1.00848
1.01101
0.9927994
0.9792937
0.9608229
0.6302904
1.122729
1.110071
1.096598
1.083499
1.069588
1.061246
1.05545
1.048571
1.041896
1.037487
1.030906
1.018779
1.012761
0.9891669
0.982279
0.9700284
0.9621795
0.6307269
1.123188
1.094119
1.092408
1.072573
1.054732
1.052291
1.044644
1.037112
1.029909
1.012381
1.017763
1.004091
1.000069
0.9786809
0.9744975
0.9617897
0.9317564
0.630215
1.122005
1.060582
1.069705
1.054678
1.045907
1.040703
1.032913
1.025148
1.024802
1.020942
1.00398
0.9796794
0.9890252
0.9744944
0.9569635
0.9480402
0.9399066
0.6304264
1.121699
1.045541
1.056564
1.047534
1.038994
1.029393
1.021678
1.015091
1.007943
0.9920628
0.9948106
0.9828131
0.967402
0.9645253
0.9477206
0.9319737
0.9244282
0.6319381
1.120452
1.049847
1.017007
1.029537
1.038503
1.023324
1.014317
1.005191
0.9980037
0.9846309
0.9751915
0.9668947
0.9443455
0.9424153
0.9346294
0.9244656
0.9076145
0.6353822
1.116611
1.003711
1.040622
1.032265
1.019612
1.020097
1.00691
0.9947646
0.9866006
0.9766235
0.9663819
0.9570618
0.9490748
0.9271612
0.922039
0.9106716
0.9017658
0.6577263
1.110572
1.09251
1.069596
1.030145
1.006363
1.005887
0.9951686
0.9857729
0.9748993
0.9642364
0.947261
0.9411953
0.9360831
0.9231787
0.909546
0.9003623
0.8912354
1.118613
1.104197
1.037368
1.004122
0.9839488
0.976641
0.9844417
0.9807366
0.9719493
0.9640264
0.9532973
0.9367098
0.9327447
0.9203067
0.9137728
0.9029837
0.8909407
0.8811123
1.118396
1.103659
0.9925568
0.9831262
0.9442044
0.9438575
0.9561852
0.9596326
0.9534951
0.9482109
0.9391295
0.9249591
0.9178148
0.9069604
0.8990992
0.8973853
0.8820814
0.870265
1.121797
1.076369
1.020835
0.9032288
0.8367651
0.8951454
0.9165761
0.9416641
0.9248442
0.927212
0.9226798
0.9134929
0.9112973
0.8973573
0.887128
0.8662839
0.8763632
0.8608982
1.122071
1.033372
1.006381
0.9766579
0.8749859
0.8526753
0.8482313
0.9376869
0.8975578
0.9019593
0.9049489
0.8998955
0.8900755
0.8833669
0.8740579
0.8593237
0.8476144
0.8463538
1.122511
1.025183
0.9783157
0.9783557
0.880035
0.9053976
0.8455989
0.8511383
0.9105881
0.8789545
0.8923582
0.8884702
0.8768687
0.874258
0.8636182
0.8588301
0.8581573
0.8389163
1.122972
1.045693
0.9325806
0.9777781
1.009043
0.8384467
0.8437958
0.8209478
0.8408266
0.8568226
0.8717865
0.8709609
0.8601387
0.8599743
0.8513913
0.8444663
0.8320113
0.8345068
1.122857
1.036446
0.9712402
1.011544
0.9701722
0.844213
0.8265215
0.8120312
0.8365889
0.8408513
0.8515136
0.8539205
0.8490814
0.8459905
0.8392528
0.8321749
0.8204106
0.8160192
1.122856
0.9998471
0.9442918
0.9755153
0.9351326
0.8534594
0.8254121
0.8141904
0.7995179
0.8282036
0.8361942
0.83851
0.8373778
0.8402819
0.8290371
0.8223233
0.8163988
0.8108002
1.122895
0.9740336
0.9194815
0.9266296
0.9151659
0.8432061
0.8223429
0.7888842
0.8432427
0.8143774
0.8225696
0.8253057
0.8264823
0.8230976
0.8179774
0.8123336
0.807033
0.7989305
1.122935
0.960939
0.9089992
0.9010698
0.8518239
0.8971705
0.8298929
0.7845679
0.8203441
0.8083064
0.8119223
0.8138612
0.8154884
0.8125084
0.8085399
0.8029333
0.7968043
0.7857416
1.122973
0.9500221
0.881287
0.8525217
0.873773
0.884886
0.8304312
0.7950115
0.7972738
0.7985014
0.8012884
0.8033235
0.8061746
0.8028606
0.7999806
0.7940795
0.7893383
0.7871185
1.123005
0.9420792
0.8627711
0.8394881
0.8750664
0.8724556
0.8290763
0.7935305
0.7847479
0.7883936
0.790983
0.793568
0.795798
0.7896666
0.7922712
0.7855764
0.781326
0.7776307
1.123035
0.93483
0.8474451
0.8265211
0.8707471
0.8640202
0.8295862
0.7907028
0.7770104
0.7795041
0.7818398
0.7848416
0.7854949
0.780696
0.7847791
0.7777644
0.7736953
0.7690913
1.123064
0.9278806
0.8333895
0.8131414
0.8636206
0.8570425
0.828658
0.7881462
0.7707745
0.7716255
0.7735937
0.7777171
0.7757046
0.7708565
0.7707837
0.7691277
0.7666152
0.7632635
1.123091
0.9217572
0.8208631
0.8011162
0.8560258
0.8506894
0.825965
0.7886276
0.7672352
0.7648475
0.7679151
0.7679536
0.7679176
0.7683322
0.7718471
0.7637184
0.7601225
0.7567345
1.123114
0.9175552
0.8090312
0.7904938
0.8484567
0.8442646
0.8220595
0.7890825
0.7630368
0.7605207
0.7586698
0.7600746
0.7603646
0.7607461
0.7590552
0.7559856
0.7536697
0.7507043
1.123137
0.9094564
0.7988461
0.78311
0.8416604
0.8385112
0.8182604
0.7884519
0.7625856
0.751236
0.7521887
0.7527865
0.7531917
0.7537275
0.7525287
0.7497353
0.7477025
0.745049
1.123157
0.9056269
0.7900323
0.7779659
0.8358482
0.8334321
0.8148112
0.7871684
0.7589517
0.7480749
0.7454264
0.7455214
0.7464694
0.7471563
0.7462797
0.7439177
0.7420798
0.7397916
1.123176
0.9008759
0.7807577
0.7753511
0.8311098
0.8292978
0.8074988
0.7865968
0.7620484
0.7439062
0.7388822
0.7387204
0.7401004
0.7408539
0.7401602
0.7383372
0.7367348
0.7349291
1.123191
0.8951089
0.7724058
0.7760917
0.8273406
0.8152783
0.8145835
0.7840677
0.7596096
0.7413354
0.7329555
0.7330484
0.7337344
0.7349864
0.7356945
0.7342402
0.7318675
0.7302335
1.123205
0.8924233
0.7659338
0.7807325
0.8034823
0.8387177
0.8056207
0.7791198
0.7561816
0.7391339
0.7271052
0.727571
0.7279919
0.7294209
0.7271611
0.7301764