/*--------------------------------*- C++ -*----------------------------------*\
| =========                 |                                                 |
| \\      /  F ield         | OpenFOAM: The Open Source CFD Toolbox           |
|  \\    /   O peration     | Version:  2206                                  |
|   \\  /    A nd           | Website:  www.openfoam.com                      |
|    \\/     M anipulation  |                                                 |
\*---------------------------------------------------------------------------*/
FoamFile
{
    version     2.0;
    format      ascii;
    arch        "LSB;label=32;scalar=64";
    class       volScalarField;
    location    "1.8";
    object      nuEffb;
}
// * * * * * * * * * * * * * * * * * * * * * * * * * * * * * * * * * * * * * //

dimensions      [0 2 -1 0 0 0 0];

internalField   nonuniform List<scalar> 
13078
(
1.845777e-05
3.484363e-05
5.12972e-05
5.174119e-05
5.103048e-05
5.010704e-05
4.905879e-05
3.758702e-05
5.133929e-05
5.262647e-05
5.1926e-05
5.108048e-05
5.013976e-05
4.908582e-05
5.370891e-05
5.368346e-05
5.292528e-05
5.206096e-05
5.116055e-05
5.019101e-05
4.912419e-05
5.496211e-05
5.395725e-05
5.305603e-05
5.216895e-05
5.123745e-05
5.02454e-05
4.916665e-05
5.505147e-05
5.404196e-05
5.313748e-05
5.223172e-05
5.130045e-05
5.029665e-05
4.920851e-05
5.499924e-05
5.405319e-05
5.317435e-05
5.227183e-05
5.133394e-05
5.033924e-05
4.924786e-05
5.494557e-05
5.40415e-05
5.318945e-05
5.229639e-05
5.135716e-05
5.03594e-05
4.928154e-05
5.490715e-05
5.402435e-05
5.319444e-05
5.230873e-05
5.137049e-05
5.037347e-05
4.929504e-05
5.488005e-05
5.400863e-05
5.319057e-05
5.231202e-05
5.137758e-05
5.038263e-05
4.930492e-05
5.486071e-05
5.399573e-05
5.318503e-05
5.231222e-05
5.138121e-05
5.038852e-05
4.931196e-05
5.484644e-05
5.398544e-05
5.317964e-05
5.231093e-05
5.138287e-05
5.03924e-05
4.931736e-05
5.483515e-05
5.397757e-05
5.317483e-05
5.230906e-05
5.138347e-05
5.039511e-05
4.932154e-05
5.482628e-05
5.397102e-05
5.317061e-05
5.230721e-05
5.138357e-05
5.039708e-05
4.932503e-05
5.481884e-05
5.396562e-05
5.316702e-05
5.23057e-05
5.138389e-05
5.039874e-05
4.932818e-05
5.481252e-05
5.396104e-05
5.316425e-05
5.230944e-05
5.139104e-05
5.040107e-05
4.933113e-05
5.480686e-05
5.395708e-05
5.316206e-05
5.231457e-05
5.139632e-05
5.040307e-05
4.933416e-05
5.480157e-05
5.395327e-05
5.315962e-05
5.231412e-05
5.139706e-05
5.040481e-05
4.933725e-05
5.479642e-05
5.394979e-05
5.315739e-05
5.231351e-05
5.139778e-05
5.040668e-05
4.934046e-05
5.47913e-05
5.394633e-05
5.315533e-05
5.231295e-05
5.139885e-05
5.040931e-05
4.934371e-05
5.478605e-05
5.394298e-05
5.315347e-05
5.231313e-05
5.140737e-05
5.042194e-05
4.934831e-05
5.478065e-05
5.393939e-05
5.315153e-05
5.231343e-05
5.141758e-05
5.043186e-05
4.9353e-05
5.477472e-05
5.393561e-05
5.31493e-05
5.231291e-05
5.141994e-05
5.04353e-05
4.935711e-05
5.476837e-05
5.39316e-05
5.314705e-05
5.231265e-05
5.142153e-05
5.043925e-05
4.936271e-05
5.476136e-05
5.392705e-05
5.314455e-05
5.231238e-05
5.142431e-05
5.045319e-05
4.938229e-05
5.475351e-05
5.392208e-05
5.314169e-05
5.231209e-05
5.142719e-05
5.046969e-05
4.93981e-05
5.474475e-05
5.391649e-05
5.313867e-05
5.231175e-05
5.142942e-05
5.047614e-05
4.940584e-05
5.473462e-05
5.391006e-05
5.313517e-05
5.231136e-05
5.143195e-05
5.048171e-05
4.941471e-05
5.472327e-05
5.390291e-05
5.313128e-05
5.231091e-05
5.143505e-05
5.048881e-05
4.943758e-05
5.471028e-05
5.389466e-05
5.31269e-05
5.231046e-05
5.143846e-05
5.049653e-05
4.946436e-05
5.469801e-05
5.388798e-05
5.312278e-05
5.231015e-05
5.144198e-05
5.05035e-05
4.947748e-05
5.468338e-05
5.387955e-05
5.311806e-05
5.230988e-05
5.144601e-05
5.051128e-05
4.949e-05
5.466572e-05
5.387341e-05
5.311991e-05
5.231131e-05
5.145041e-05
5.051957e-05
4.950291e-05
5.464688e-05
5.386762e-05
5.31255e-05
5.232391e-05
5.145937e-05
5.053174e-05
4.951769e-05
5.462835e-05
5.386193e-05
5.313471e-05
5.233894e-05
5.148021e-05
5.05597e-05
4.954819e-05
5.461456e-05
5.38674e-05
5.31625e-05
5.239685e-05
5.155847e-05
5.06337e-05
4.961622e-05
5.461569e-05
5.390838e-05
5.325086e-05
5.253772e-05
5.172644e-05
5.079416e-05
4.973572e-05
5.465356e-05
5.403305e-05
5.345334e-05
5.277979e-05
5.197966e-05
5.097977e-05
4.985017e-05
5.477108e-05
5.429193e-05
5.377877e-05
5.309181e-05
5.223469e-05
5.115151e-05
4.987089e-05
5.502156e-05
5.467488e-05
5.416396e-05
5.340319e-05
5.243789e-05
5.12723e-05
4.977206e-05
5.545028e-05
5.513419e-05
5.454967e-05
5.369116e-05
5.260237e-05
5.129687e-05
4.962768e-05
5.605106e-05
5.562021e-05
5.498769e-05
5.398815e-05
5.279535e-05
5.138314e-05
4.961241e-05
5.682982e-05
5.612876e-05
5.544508e-05
5.442348e-05
5.314445e-05
5.161949e-05
4.959497e-05
5.773846e-05
5.667965e-05
5.594085e-05
5.498158e-05
5.378601e-05
5.190719e-05
4.954583e-05
5.867438e-05
5.714646e-05
5.6518e-05
5.564489e-05
5.429437e-05
5.213677e-05
4.941997e-05
5.94338e-05
5.752666e-05
5.704994e-05
5.613834e-05
5.447947e-05
5.218411e-05
4.958971e-05
5.985405e-05
5.784713e-05
5.738558e-05
5.618961e-05
5.439824e-05
5.216354e-05
4.96719e-05
6.020339e-05
5.819555e-05
5.729448e-05
5.585852e-05
5.408206e-05
5.196746e-05
4.97674e-05
6.081173e-05
5.850475e-05
5.713618e-05
5.541327e-05
5.371109e-05
5.17265e-05
4.957333e-05
6.146083e-05
5.867101e-05
5.702965e-05
5.511059e-05
5.33025e-05
5.133235e-05
4.924274e-05
6.195235e-05
5.878875e-05
5.694435e-05
5.481956e-05
5.282972e-05
5.074566e-05
4.879011e-05
6.214627e-05
5.893949e-05
5.691511e-05
5.440667e-05
5.222667e-05
5.005551e-05
4.809131e-05
6.203648e-05
5.893182e-05
5.670378e-05
5.402863e-05
5.171147e-05
4.954964e-05
4.74127e-05
6.174349e-05
5.879576e-05
5.631892e-05
5.360065e-05
5.12493e-05
4.914987e-05
4.696406e-05
6.141009e-05
5.865143e-05
5.607804e-05
5.325921e-05
5.087465e-05
4.876077e-05
4.680957e-05
6.107001e-05
5.848504e-05
5.585799e-05
5.301261e-05
5.064269e-05
4.857915e-05
4.668667e-05
6.074902e-05
5.834833e-05
5.573421e-05
5.291617e-05
5.055579e-05
4.85238e-05
4.665004e-05
6.065547e-05
5.830604e-05
5.573856e-05
5.295384e-05
5.061076e-05
4.857806e-05
4.668884e-05
6.077129e-05
5.833778e-05
5.585222e-05
5.311885e-05
5.079504e-05
4.873464e-05
4.684376e-05
6.085658e-05
5.834274e-05
5.600545e-05
5.338504e-05
5.108731e-05
4.900717e-05
4.712516e-05
6.088552e-05
5.829514e-05
5.61424e-05
5.369447e-05
5.149454e-05
4.944975e-05
4.741125e-05
6.086895e-05
5.822238e-05
5.637334e-05
5.399702e-05
5.188371e-05
4.978822e-05
4.775303e-05
6.073777e-05
5.80774e-05
5.643192e-05
5.420448e-05
5.222678e-05
5.014817e-05
4.824148e-05
6.034673e-05
5.783251e-05
5.640331e-05
5.453413e-05
5.266416e-05
5.062805e-05
4.865712e-05
5.975893e-05
5.771956e-05
5.65639e-05
5.486659e-05
5.303876e-05
5.095097e-05
4.882348e-05
5.91254e-05
5.764193e-05
5.679422e-05
5.520797e-05
5.331198e-05
5.103612e-05
4.87879e-05
5.867873e-05
5.745022e-05
5.68944e-05
5.547237e-05
5.342469e-05
5.096788e-05
4.869486e-05
5.83703e-05
5.713625e-05
5.672981e-05
5.548749e-05
5.345131e-05
5.104319e-05
4.864148e-05
5.787804e-05
5.670618e-05
5.618157e-05
5.519889e-05
5.34483e-05
5.113149e-05
4.875381e-05
5.717009e-05
5.623767e-05
5.561594e-05
5.471512e-05
5.328319e-05
5.125778e-05
4.883985e-05
5.645142e-05
5.578076e-05
5.509959e-05
5.417712e-05
5.297958e-05
5.121727e-05
4.906313e-05
5.581682e-05
5.534467e-05
5.468841e-05
5.376248e-05
5.26168e-05
5.115469e-05
4.925801e-05
5.53048e-05
5.496149e-05
5.436223e-05
5.346773e-05
5.239827e-05
5.111606e-05
4.951352e-05
5.494095e-05
5.458428e-05
5.40413e-05
5.326024e-05
5.228518e-05
5.112111e-05
4.962445e-05
5.471817e-05
5.424818e-05
5.372621e-05
5.301986e-05
5.214607e-05
5.110705e-05
4.9757e-05
5.461495e-05
5.401397e-05
5.343999e-05
5.276254e-05
5.19572e-05
5.09726e-05
4.981008e-05
5.458248e-05
5.389312e-05
5.324634e-05
5.254092e-05
5.173917e-05
5.079755e-05
4.973675e-05
5.458474e-05
5.385077e-05
5.315553e-05
5.240971e-05
5.157854e-05
5.065564e-05
4.963268e-05
5.460214e-05
5.384586e-05
5.312845e-05
5.234857e-05
5.149934e-05
5.057141e-05
4.956193e-05
5.462384e-05
5.385354e-05
5.312376e-05
5.232462e-05
5.146228e-05
5.053949e-05
4.952967e-05
5.46456e-05
5.386461e-05
5.312163e-05
5.231918e-05
5.145454e-05
5.052725e-05
4.951464e-05
5.466696e-05
5.387279e-05
5.311833e-05
5.230961e-05
5.144933e-05
5.051937e-05
4.950348e-05
5.468557e-05
5.388054e-05
5.311801e-05
5.230984e-05
5.14462e-05
5.051205e-05
4.949155e-05
5.470048e-05
5.388969e-05
5.312381e-05
5.231098e-05
5.144314e-05
5.050491e-05
4.947945e-05
5.47128e-05
5.389672e-05
5.312845e-05
5.231193e-05
5.144001e-05
5.049835e-05
4.94667e-05
5.472568e-05
5.390512e-05
5.313311e-05
5.231281e-05
5.143688e-05
5.049089e-05
4.943998e-05
5.473695e-05
5.391224e-05
5.313715e-05
5.231323e-05
5.143398e-05
5.048391e-05
4.941699e-05
5.474689e-05
5.391859e-05
5.314066e-05
5.231351e-05
5.143138e-05
5.047824e-05
4.940799e-05
5.475535e-05
5.39239e-05
5.314346e-05
5.231371e-05
5.142897e-05
5.047158e-05
4.94e-05
5.476301e-05
5.392862e-05
5.314598e-05
5.231401e-05
5.142592e-05
5.045475e-05
4.938389e-05
5.476976e-05
5.393298e-05
5.314834e-05
5.231403e-05
5.1423e-05
5.044074e-05
4.936406e-05
5.477588e-05
5.393671e-05
5.31504e-05
5.231408e-05
5.142122e-05
5.043648e-05
4.935839e-05
5.478142e-05
5.394027e-05
5.315245e-05
5.231425e-05
5.141844e-05
5.043283e-05
4.935399e-05
5.478654e-05
5.394357e-05
5.315404e-05
5.231362e-05
5.140785e-05
5.042251e-05
4.934893e-05
5.479141e-05
5.394662e-05
5.315559e-05
5.231312e-05
5.139911e-05
5.040958e-05
4.934406e-05
5.47961e-05
5.394962e-05
5.315719e-05
5.23135e-05
5.13979e-05
5.040682e-05
4.934076e-05
5.480069e-05
5.39526e-05
5.315905e-05
5.231383e-05
5.139703e-05
5.040499e-05
4.93376e-05
5.48054e-05
5.395584e-05
5.31611e-05
5.231393e-05
5.139614e-05
5.040323e-05
4.933448e-05
5.481022e-05
5.395908e-05
5.316279e-05
5.230845e-05
5.13906e-05
5.040112e-05
4.933144e-05
5.481542e-05
5.396278e-05
5.316492e-05
5.230447e-05
5.138333e-05
5.039877e-05
4.932866e-05
5.482147e-05
5.396714e-05
5.316785e-05
5.230575e-05
5.138308e-05
5.039734e-05
4.932583e-05
5.482848e-05
5.397259e-05
5.317143e-05
5.230744e-05
5.138319e-05
5.039588e-05
4.932299e-05
5.48373e-05
5.397902e-05
5.317556e-05
5.230927e-05
5.13831e-05
5.039404e-05
4.931975e-05
5.484834e-05
5.39869e-05
5.318032e-05
5.231102e-05
5.138253e-05
5.039152e-05
4.931572e-05
5.486244e-05
5.399692e-05
5.318562e-05
5.231227e-05
5.1381e-05
5.038781e-05
4.931058e-05
5.488141e-05
5.400977e-05
5.319077e-05
5.231221e-05
5.13776e-05
5.038195e-05
4.930339e-05
5.490807e-05
5.40253e-05
5.319085e-05
5.230625e-05
5.137026e-05
5.037274e-05
4.929332e-05
5.494621e-05
5.404235e-05
5.31874e-05
5.22932e-05
5.135645e-05
5.035891e-05
4.926381e-05
5.499934e-05
5.40547e-05
5.317586e-05
5.227256e-05
5.133546e-05
5.032402e-05
4.922872e-05
5.505131e-05
5.404391e-05
5.313964e-05
5.223619e-05
5.128777e-05
5.02804e-05
4.919002e-05
5.496428e-05
5.396025e-05
5.306741e-05
5.215932e-05
5.122439e-05
5.023034e-05
4.91481e-05
5.377587e-05
5.371789e-05
5.291814e-05
5.205265e-05
5.114972e-05
5.017617e-05
4.910541e-05
3.834772e-05
5.176547e-05
5.273948e-05
5.19233e-05
5.10639e-05
5.012048e-05
4.90641e-05
4.786552e-05
4.643975e-05
4.465303e-05
4.30652e-05
4.047866e-05
3.693449e-05
3.060225e-05
4.78928e-05
4.647189e-05
4.469071e-05
4.310631e-05
4.052366e-05
3.698769e-05
3.08286e-05
4.792653e-05
4.65069e-05
4.473249e-05
4.257869e-05
4.05669e-05
3.703922e-05
3.09517e-05
4.796309e-05
4.654318e-05
4.476973e-05
4.319846e-05
4.061264e-05
3.709122e-05
3.106483e-05
4.799975e-05
4.658051e-05
4.481082e-05
4.324345e-05
4.065859e-05
3.714335e-05
3.11468e-05
4.803553e-05
4.661802e-05
4.485239e-05
4.32892e-05
4.07041e-05
3.719524e-05
3.122526e-05
4.80696e-05
4.665465e-05
4.489335e-05
4.333297e-05
4.07177e-05
3.724708e-05
3.130042e-05
4.80996e-05
4.669024e-05
4.493352e-05
4.33757e-05
4.073024e-05
3.729855e-05
3.137273e-05
4.810998e-05
4.67224e-05
4.497154e-05
4.34187e-05
4.076697e-05
3.734489e-05
3.144372e-05
4.811784e-05
4.673231e-05
4.500656e-05
4.34613e-05
4.080304e-05
3.739127e-05
3.15124e-05
4.812415e-05
4.673987e-05
4.501682e-05
4.350243e-05
4.083908e-05
3.743768e-05
3.157932e-05
4.812965e-05
4.674683e-05
4.502484e-05
4.351166e-05
4.087531e-05
3.748427e-05
3.164487e-05
4.813448e-05
4.675332e-05
4.50328e-05
4.352021e-05
4.088195e-05
3.753202e-05
3.170847e-05
4.813904e-05
4.675962e-05
4.504079e-05
4.352908e-05
4.088942e-05
3.754152e-05
3.176386e-05
4.814349e-05
4.676609e-05
4.504898e-05
4.35382e-05
4.089739e-05
3.755282e-05
3.174652e-05
4.814807e-05
4.677272e-05
4.505739e-05
4.354773e-05
4.090604e-05
3.756506e-05
3.173268e-05
4.815269e-05
4.677956e-05
4.506606e-05
4.355804e-05
4.091968e-05
3.75779e-05
3.172413e-05
4.815748e-05
4.678645e-05
4.507535e-05
4.357318e-05
4.102467e-05
3.759182e-05
3.170622e-05
4.816245e-05
4.679338e-05
4.508492e-05
4.358448e-05
4.104157e-05
3.760611e-05
3.169111e-05
4.816779e-05
4.680075e-05
4.509499e-05
4.359641e-05
4.105485e-05
3.762123e-05
3.167202e-05
4.817335e-05
4.680849e-05
4.51054e-05
4.360901e-05
4.106876e-05
3.763705e-05
3.16417e-05
4.81794e-05
4.681662e-05
4.511602e-05
4.362246e-05
4.108338e-05
3.765372e-05
3.161878e-05
4.818566e-05
4.682533e-05
4.512765e-05
4.363459e-05
4.110251e-05
3.767113e-05
3.159386e-05
4.819407e-05
4.683476e-05
4.514131e-05
4.310231e-05
4.12086e-05
3.769795e-05
3.156919e-05
4.820266e-05
4.68444e-05
4.515325e-05
4.366366e-05
4.126145e-05
3.771982e-05
3.154388e-05
4.821083e-05
4.685476e-05
4.516694e-05
4.368285e-05
4.128317e-05
3.774064e-05
3.151668e-05
4.822218e-05
4.686749e-05
4.518289e-05
4.370157e-05
4.130522e-05
3.776532e-05
3.148376e-05
4.825343e-05
4.688163e-05
4.51979e-05
4.372032e-05
4.133458e-05
3.794995e-05
3.145105e-05
4.827573e-05
4.726325e-05
4.566017e-05
4.373437e-05
4.136205e-05
3.80229e-05
3.142447e-05
4.829215e-05
4.727656e-05
4.567908e-05
4.375599e-05
4.138845e-05
3.805377e-05
3.139638e-05
4.83356e-05
4.732393e-05
4.569777e-05
4.377839e-05
4.141724e-05
3.81892e-05
3.137068e-05
4.836655e-05
4.737147e-05
4.571698e-05
4.38031e-05
4.144952e-05
3.834818e-05
3.134883e-05
4.838674e-05
4.744309e-05
4.574284e-05
4.382932e-05
4.148489e-05
3.839659e-05
3.137073e-05
4.841321e-05
4.747661e-05
4.580151e-05
4.385433e-05
4.152262e-05
3.847839e-05
3.21805e-05
4.846073e-05
4.752078e-05
4.586494e-05
4.387223e-05
4.155175e-05
3.863732e-05
3.301267e-05
4.851676e-05
4.758261e-05
4.593547e-05
4.383033e-05
4.152581e-05
3.894659e-05
3.511857e-05
4.849321e-05
4.756887e-05
4.576666e-05
4.362378e-05
4.140994e-05
3.929265e-05
3.558579e-05
4.831078e-05
4.732134e-05
4.538897e-05
4.339687e-05
4.107947e-05
3.867546e-05
3.582585e-05
4.796478e-05
4.681341e-05
4.478922e-05
4.278627e-05
4.022608e-05
3.783915e-05
3.565475e-05
4.754156e-05
4.614987e-05
4.381464e-05
4.123725e-05
3.958708e-05
3.779424e-05
3.480749e-05
4.713554e-05
4.53186e-05
4.248763e-05
4.029095e-05
3.92655e-05
3.775099e-05
3.35129e-05
4.701003e-05
4.473169e-05
4.184267e-05
3.991936e-05
3.865179e-05
3.749135e-05
3.324574e-05
4.68252e-05
4.432338e-05
4.120389e-05
3.951928e-05
3.812176e-05
3.721673e-05
3.268436e-05
4.649321e-05
4.369393e-05
4.069485e-05
3.884111e-05
3.804671e-05
3.663818e-05
3.315811e-05
4.650218e-05
4.354501e-05
4.034679e-05
3.831128e-05
3.821084e-05
3.630423e-05
3.306825e-05
4.660071e-05
4.331122e-05
3.955831e-05
3.819725e-05
3.838161e-05
3.688978e-05
3.323931e-05
4.694505e-05
4.384771e-05
3.926645e-05
3.827231e-05
3.871882e-05
3.69905e-05
3.523761e-05
4.685395e-05
4.411373e-05
3.922332e-05
3.832413e-05
3.854177e-05
3.741184e-05
3.728152e-05
4.669579e-05
4.460617e-05
3.959172e-05
3.791286e-05
3.832964e-05
3.794871e-05
3.793255e-05
4.623658e-05
4.408223e-05
3.932923e-05
3.788143e-05
3.7744e-05
3.810563e-05
3.782447e-05
4.54126e-05
4.361529e-05
3.941823e-05
3.757386e-05
3.789082e-05
3.851392e-05
3.711726e-05
4.453217e-05
4.235781e-05
3.890823e-05
3.773447e-05
3.758007e-05
3.874334e-05
3.645874e-05
4.38094e-05
4.137011e-05
3.837849e-05
3.800509e-05
3.696856e-05
3.803582e-05
3.632814e-05
4.320072e-05
4.037636e-05
3.824019e-05
3.788099e-05
3.727056e-05
3.771296e-05
3.842872e-05
4.292065e-05
3.985533e-05
3.780218e-05
3.804086e-05
3.816747e-05
3.805899e-05
3.843047e-05
4.293524e-05
3.947535e-05
3.761873e-05
3.795181e-05
3.832023e-05
3.860215e-05
4.29608e-05
3.914446e-05
3.741068e-05
3.798518e-05
3.811991e-05
3.836208e-05
4.307028e-05
3.896361e-05
3.734831e-05
3.795128e-05
3.881363e-05
3.979378e-05
4.364664e-05
3.946941e-05
3.795923e-05
3.790944e-05
3.876136e-05
3.946288e-05
4.118851e-05
4.451488e-05
4.081437e-05
3.876089e-05
3.791816e-05
3.760737e-05
3.860506e-05
3.744779e-05
4.520908e-05
4.217956e-05
3.989237e-05
3.821912e-05
3.795735e-05
3.901966e-05
4.063811e-05
4.575963e-05
4.325775e-05
4.058213e-05
3.857362e-05
3.82694e-05
4.004531e-05
3.964949e-05
4.606353e-05
4.363453e-05
3.9977e-05
3.831349e-05
3.909489e-05
4.053896e-05
3.943865e-05
4.598945e-05
4.34573e-05
3.991483e-05
3.859162e-05
3.914099e-05
4.121077e-05
4.09502e-05
4.579609e-05
4.34676e-05
3.970135e-05
3.873229e-05
3.979895e-05
4.104599e-05
3.963762e-05
4.566605e-05
4.313843e-05
3.988971e-05
3.884489e-05
3.97841e-05
3.993672e-05
3.820529e-05
4.565129e-05
4.317446e-05
4.005776e-05
3.925698e-05
3.90734e-05
3.858873e-05
3.585431e-05
4.580508e-05
4.318175e-05
4.038079e-05
3.955565e-05
3.872982e-05
3.745059e-05
3.445835e-05
4.603431e-05
4.359245e-05
4.090737e-05
3.955558e-05
3.892495e-05
3.686457e-05
3.350279e-05
4.636757e-05
4.407304e-05
4.133532e-05
4.007621e-05
3.884658e-05
3.729772e-05
3.342533e-05
4.675909e-05
4.459725e-05
4.223312e-05
4.028042e-05
3.925545e-05
3.871937e-05
3.400986e-05
4.722834e-05
4.508873e-05
4.288784e-05
4.04237e-05
3.963109e-05
3.890721e-05
3.439025e-05
4.775076e-05
4.590187e-05
4.403297e-05
4.131919e-05
3.995506e-05
3.871786e-05
3.477317e-05
4.816937e-05
4.655065e-05
4.499253e-05
4.282242e-05
4.014091e-05
3.835589e-05
3.590902e-05
4.842275e-05
4.705973e-05
4.550314e-05
4.359812e-05
4.107045e-05
3.851531e-05
3.617723e-05
4.849925e-05
4.736278e-05
4.581704e-05
4.370819e-05
4.142171e-05
3.899642e-05
3.540584e-05
4.847301e-05
4.745969e-05
4.594902e-05
4.38706e-05
4.151523e-05
3.887094e-05
3.446702e-05
4.842949e-05
4.746122e-05
4.592924e-05
4.388636e-05
4.154627e-05
3.857305e-05
3.266703e-05
4.84027e-05
4.744549e-05
4.584348e-05
4.386972e-05
4.153434e-05
3.847437e-05
3.210769e-05
4.838685e-05
4.742896e-05
4.576696e-05
4.384652e-05
4.150404e-05
3.842313e-05
3.173743e-05
4.836925e-05
4.737718e-05
4.573503e-05
4.38199e-05
4.14692e-05
3.837252e-05
3.132769e-05
4.833856e-05
4.733086e-05
4.571137e-05
4.37942e-05
4.143569e-05
3.830871e-05
3.134564e-05
4.829484e-05
4.727358e-05
4.569186e-05
4.377031e-05
4.140514e-05
3.808434e-05
3.137394e-05
4.827856e-05
4.725314e-05
4.567205e-05
4.37489e-05
4.13776e-05
3.803969e-05
3.140406e-05
4.825609e-05
4.688449e-05
4.520077e-05
4.37177e-05
4.13511e-05
3.800827e-05
3.143287e-05
4.822468e-05
4.687017e-05
4.518558e-05
4.370095e-05
4.132078e-05
3.783805e-05
3.146409e-05
4.821312e-05
4.685724e-05
4.516981e-05
4.368372e-05
4.129542e-05
3.775291e-05
3.149834e-05
4.820467e-05
4.684648e-05
4.515562e-05
4.366738e-05
4.127311e-05
3.773091e-05
3.15268e-05
4.819568e-05
4.683623e-05
4.514208e-05
4.365165e-05
4.124879e-05
3.771047e-05
3.155656e-05
4.818701e-05
4.682674e-05
4.512945e-05
4.363636e-05
4.113679e-05
3.768364e-05
3.158135e-05
4.818057e-05
4.681782e-05
4.511741e-05
4.3622e-05
4.109094e-05
3.766235e-05
3.160714e-05
4.817436e-05
4.680928e-05
4.510611e-05
4.360868e-05
4.107599e-05
3.764531e-05
3.163383e-05
4.816847e-05
4.680136e-05
4.509545e-05
4.359592e-05
4.106162e-05
3.762907e-05
3.165698e-05
4.816288e-05
4.67939e-05
4.508526e-05
4.358395e-05
4.104813e-05
3.761356e-05
3.167964e-05
4.815786e-05
4.678685e-05
4.507577e-05
4.357245e-05
4.10354e-05
3.759889e-05
3.169828e-05
4.815301e-05
4.677991e-05
4.506651e-05
4.35591e-05
4.097823e-05
3.758474e-05
3.171373e-05
4.814843e-05
4.677313e-05
4.505783e-05
4.354678e-05
4.091064e-05
3.757138e-05
3.172872e-05
4.814403e-05
4.676673e-05
4.50496e-05
4.353681e-05
4.090188e-05
3.755878e-05
3.174362e-05
4.813984e-05
4.676056e-05
4.504167e-05
4.35271e-05
4.089361e-05
3.754693e-05
3.174821e-05
4.813565e-05
4.675461e-05
4.503395e-05
4.351788e-05
4.088603e-05
3.753597e-05
3.172901e-05
4.813142e-05
4.674864e-05
4.502648e-05
4.350875e-05
4.087875e-05
3.75076e-05
3.166535e-05
4.812682e-05
4.674239e-05
4.5019e-05
4.349974e-05
4.085777e-05
3.746097e-05
3.159954e-05
4.812168e-05
4.673576e-05
4.500935e-05
4.347444e-05
4.08221e-05
3.741445e-05
3.153161e-05
4.811537e-05
4.672701e-05
4.497516e-05
4.343191e-05
4.078627e-05
3.736813e-05
3.146358e-05
4.810691e-05
4.669632e-05
4.493822e-05
4.338886e-05
4.07504e-05
3.732173e-05
3.139265e-05
4.807934e-05
4.666227e-05
4.489906e-05
4.334522e-05
4.071583e-05
3.727301e-05
3.132096e-05
4.804776e-05
4.66271e-05
4.485895e-05
4.330344e-05
4.07268e-05
3.722128e-05
3.124793e-05
4.80141e-05
4.659054e-05
4.481808e-05
4.325907e-05
4.068291e-05
3.716943e-05
3.117215e-05
4.797836e-05
4.655297e-05
4.477673e-05
4.321492e-05
4.063748e-05
3.711756e-05
3.109322e-05
4.794088e-05
4.651503e-05
4.473533e-05
4.317091e-05
4.059194e-05
3.706556e-05
3.10001e-05
4.790373e-05
4.647792e-05
4.469445e-05
4.312801e-05
4.054642e-05
3.70135e-05
3.087948e-05
4.78679e-05
4.644094e-05
4.465404e-05
4.308624e-05
4.050111e-05
3.69611e-05
3.071313e-05
1.017381e-06
1e-06
1e-06
1e-06
1e-06
1e-06
1e-06
1e-06
1e-06
1e-06
1e-06
1e-06
1e-06
1e-06
1e-06
1e-06
1e-06
1e-06
1.037743e-06
1e-06
1e-06
1e-06
1e-06
1e-06
1e-06
1e-06
1e-06
1e-06
1e-06
1e-06
1e-06
1e-06
1e-06
1e-06
1e-06
1e-06
1.042526e-06
1e-06
1e-06
1e-06
1e-06
1e-06
1e-06
1e-06
1e-06
1e-06
1e-06
1e-06
1e-06
1e-06
1e-06
1e-06
1e-06
1e-06
1.045561e-06
1e-06
1e-06
1e-06
1e-06
1e-06
1e-06
1e-06
1e-06
1e-06
1e-06
1e-06
1e-06
1e-06
1e-06
1e-06
1e-06
1e-06
1.04953e-06
1e-06
1e-06
1e-06
1e-06
1e-06
1e-06
1e-06
1e-06
1e-06
1e-06
1e-06
1e-06
1e-06
1e-06
1e-06
1e-06
1e-06
1.054362e-06
1e-06
1e-06
1e-06
1e-06
1e-06
1e-06
1e-06
1e-06
1e-06
1e-06
1e-06
1e-06
1e-06
1e-06
1e-06
1e-06
1e-06
1.059902e-06
1e-06
1e-06
1e-06
1e-06
1e-06
1e-06
1e-06
1e-06
1e-06
1e-06
1e-06
1e-06
1e-06
1e-06
1e-06
1e-06
1e-06
1.065803e-06
1e-06
1e-06
1e-06
1e-06
1e-06
1e-06
1e-06
1e-06
1e-06
1e-06
1e-06
1e-06
1e-06
1e-06
1e-06
1e-06
1e-06
1.069918e-06
1e-06
1e-06
1e-06
1e-06
1e-06
1e-06
1e-06
1e-06
1e-06
1e-06
1e-06
1e-06
1e-06
1e-06
1e-06
1e-06
1e-06
1.074013e-06
1e-06
1e-06
1e-06
1e-06
1e-06
1e-06
1e-06
1e-06
1e-06
1e-06
1e-06
1e-06
1e-06
1e-06
1e-06
1e-06
1e-06
1.078659e-06
1e-06
1e-06
1e-06
1e-06
1e-06
1e-06
1e-06
1e-06
1e-06
1e-06
1e-06
1e-06
1e-06
1e-06
1e-06
1e-06
1e-06
1.08285e-06
1e-06
1e-06
1e-06
1e-06
1e-06
1e-06
1e-06
1e-06
1e-06
1e-06
1e-06
1e-06
1e-06
1e-06
1e-06
1e-06
1e-06
1.087232e-06
1e-06
1e-06
1e-06
1e-06
1e-06
1e-06
1e-06
1e-06
1e-06
1e-06
1e-06
1e-06
1e-06
1e-06
1e-06
1e-06
1e-06
1.092341e-06
1e-06
1e-06
1e-06
1e-06
1e-06
1e-06
1e-06
1e-06
1e-06
1e-06
1e-06
1e-06
1e-06
1e-06
1e-06
1e-06
1e-06
1.113737e-06
1e-06
1e-06
1e-06
1e-06
1e-06
1e-06
1e-06
1e-06
1e-06
1e-06
1e-06
1e-06
1e-06
1e-06
1e-06
1e-06
1e-06
1.119657e-06
1e-06
1e-06
1e-06
1e-06
1e-06
1e-06
1e-06
1e-06
1e-06
1e-06
1e-06
1e-06
1e-06
1e-06
1e-06
1e-06
1e-06
1.127965e-06
1.000001e-06
1e-06
1e-06
1e-06
1e-06
1e-06
1e-06
1e-06
1e-06
1e-06
1e-06
1e-06
1e-06
1e-06
1e-06
1e-06
1e-06
1.137176e-06
1.000001e-06
1e-06
1e-06
1e-06
1e-06
1e-06
1e-06
1e-06
1e-06
1e-06
1e-06
1e-06
1e-06
1e-06
1e-06
1e-06
1e-06
1.147169e-06
1.000002e-06
1e-06
1e-06
1e-06
1e-06
1e-06
1e-06
1e-06
1e-06
1e-06
1e-06
1e-06
1e-06
1e-06
1e-06
1e-06
1e-06
1.157255e-06
1.000002e-06
1e-06
1e-06
1e-06
1e-06
1e-06
1e-06
1e-06
1e-06
1e-06
1e-06
1e-06
1e-06
1e-06
1e-06
1e-06
1e-06
1.167423e-06
1.000002e-06
1e-06
1e-06
1e-06
1e-06
1e-06
1e-06
1e-06
1e-06
1e-06
1e-06
1e-06
1e-06
1e-06
1e-06
1e-06
1e-06
1.17807e-06
1.000003e-06
1e-06
1e-06
1e-06
1e-06
1e-06
1e-06
1e-06
1e-06
1e-06
1e-06
1e-06
1e-06
1e-06
1e-06
1e-06
1e-06
1.189477e-06
1.000004e-06
1e-06
1e-06
1e-06
1e-06
1e-06
1e-06
1e-06
1e-06
1e-06
1e-06
1e-06
1e-06
1e-06
1e-06
1e-06
1e-06
1.201646e-06
1.000005e-06
1e-06
1e-06
1e-06
1e-06
1e-06
1e-06
1e-06
1e-06
1e-06
1e-06
1e-06
1e-06
1e-06
1e-06
1e-06
1e-06
1.214914e-06
1.000006e-06
1e-06
1e-06
1e-06
1e-06
1e-06
1e-06
1e-06
1e-06
1e-06
1e-06
1e-06
1e-06
1e-06
1e-06
1e-06
1e-06
1.228877e-06
1.000007e-06
1e-06
1e-06
1e-06
1e-06
1e-06
1e-06
1e-06
1e-06
1e-06
1e-06
1e-06
1e-06
1e-06
1e-06
1e-06
1e-06
1.244071e-06
1.000009e-06
1e-06
1e-06
1e-06
1e-06
1e-06
1e-06
1e-06
1e-06
1e-06
1e-06
1e-06
1e-06
1e-06
1e-06
1e-06
1e-06
1.260526e-06
1.000011e-06
1e-06
1e-06
1e-06
1e-06
1e-06
1e-06
1e-06
1e-06
1e-06
1e-06
1e-06
1e-06
1e-06
1e-06
1e-06
1e-06
1.278064e-06
1.000013e-06
1e-06
1e-06
1e-06
1e-06
1e-06
1e-06
1e-06
1e-06
1e-06
1e-06
1e-06
1e-06
1e-06
1e-06
1e-06
1e-06
1.297379e-06
1.000016e-06
1e-06
1e-06
1e-06
1e-06
1e-06
1e-06
1e-06
1e-06
1e-06
1e-06
1e-06
1e-06
1e-06
1e-06
1e-06
1e-06
1.318233e-06
1.00002e-06
1e-06
1e-06
1e-06
1e-06
1e-06
1e-06
1e-06
1e-06
1e-06
1e-06
1e-06
1e-06
1e-06
1e-06
1e-06
1e-06
1.340608e-06
1.000023e-06
1e-06
1e-06
1e-06
1e-06
1e-06
1e-06
1e-06
1e-06
1e-06
1e-06
1e-06
1e-06
1e-06
1e-06
1e-06
1e-06
1.365621e-06
1.000027e-06
1e-06
1e-06
1e-06
1e-06
1e-06
1e-06
1e-06
1e-06
1e-06
1e-06
1e-06
1e-06
1e-06
1e-06
1e-06
1e-06
1.394856e-06
1.000031e-06
1e-06
1e-06
1e-06
1e-06
1e-06
1e-06
1e-06
1e-06
1e-06
1e-06
1e-06
1e-06
1e-06
1e-06
1e-06
1e-06
1.483313e-06
1.000058e-06
1e-06
1e-06
1e-06
1e-06
1e-06
1e-06
1e-06
1e-06
1e-06
1e-06
1e-06
1e-06
1e-06
1e-06
1e-06
1e-06
1.54288e-06
1.000083e-06
1e-06
1e-06
1e-06
1e-06
1e-06
1e-06
1e-06
1e-06
1e-06
1e-06
1e-06
1e-06
1e-06
1e-06
1e-06
1e-06
1.652307e-06
1.000104e-06
1e-06
1e-06
1e-06
1e-06
1e-06
1e-06
1e-06
1e-06
1e-06
1e-06
1e-06
1e-06
1e-06
1e-06
1e-06
1e-06
2.520999e-06
1.000258e-06
1e-06
1e-06
1e-06
1e-06
1e-06
1e-06
1e-06
1e-06
1e-06
1e-06
1e-06
1e-06
1e-06
1e-06
1e-06
1e-06
5.046029e-06
1.00039e-06
1e-06
1e-06
1e-06
1e-06
1e-06
1e-06
1e-06
1e-06
1e-06
1e-06
1e-06
1e-06
1e-06
1e-06
1e-06
1e-06
9.995578e-06
1.001375e-06
1e-06
1e-06
1e-06
1e-06
1e-06
1e-06
1e-06
1e-06
1e-06
1e-06
1e-06
1e-06
1e-06
1e-06
1e-06
1e-06
1.813177e-05
1.005355e-06
1.000001e-06
1e-06
1e-06
1e-06
1e-06
1e-06
1e-06
1e-06
1e-06
1e-06
1e-06
1e-06
1e-06
1e-06
1e-06
1e-06
2.062774e-05
1.003532e-06
1e-06
1e-06
1e-06
1e-06
1e-06
1e-06
1e-06
1e-06
1e-06
1e-06
1e-06
1e-06
1e-06
1e-06
1e-06
1e-06
2.238613e-05
1.003206e-06
1e-06
1e-06
1e-06
1e-06
1e-06
1e-06
1e-06
1e-06
1e-06
1e-06
1e-06
1e-06
1e-06
1e-06
1e-06
1e-06
2.367274e-05
1.005334e-06
1e-06
1e-06
1e-06
1e-06
1e-06
1e-06
1e-06
1e-06
1e-06
1e-06
1e-06
1e-06
1e-06
1e-06
1e-06
1e-06
2.515003e-05
1.004772e-06
1e-06
1e-06
1e-06
1e-06
1e-06
1e-06
1e-06
1e-06
1e-06
1e-06
1e-06
1e-06
1e-06
1e-06
1e-06
1e-06
2.62784e-05
1.003852e-06
1e-06
1e-06
1e-06
1e-06
1e-06
1e-06
1e-06
1e-06
1e-06
1e-06
1e-06
1e-06
1e-06
1e-06
1e-06
1e-06
2.904697e-05
1.010327e-06
1.000002e-06
1e-06
1e-06
1e-06
1e-06
1e-06
1e-06
1e-06
1e-06
1e-06
1e-06
1e-06
1e-06
1e-06
1e-06
1e-06
3.176965e-05
1.124668e-06
1.000103e-06
1e-06
1e-06
1e-06
1e-06
1e-06
1e-06
1e-06
1e-06
1e-06
1e-06
1e-06
1e-06
1e-06
1e-06
1e-06
3.339269e-05
1.348789e-06
1.000536e-06
1.000002e-06
1e-06
1e-06
1e-06
1e-06
1e-06
1e-06
1e-06
1e-06
1e-06
1e-06
1e-06
1e-06
1e-06
1e-06
3.52799e-05
2.067919e-06
1.002897e-06
1.000023e-06
1e-06
1e-06
1e-06
1e-06
1e-06
1e-06
1e-06
1e-06
1e-06
1e-06
3.592744e-05
1.705128e-05
1e-06
1e-06
1e-06
1e-06
1e-06
1e-06
1e-06
1e-06
3.504024e-05
1e-06
1e-06
1e-06
1e-06
1e-06
1e-06
1e-06
1e-06
1e-06
1e-06
1e-06
1e-06
1e-06
1e-06
1e-06
1e-06
1e-06
1e-06
1e-06
1e-06
1e-06
1e-06
1e-06
1e-06
1e-06
1e-06
1e-06
1e-06
1e-06
1e-06
1e-06
1e-06
1e-06
1e-06
1e-06
1e-06
1e-06
1e-06
1e-06
1e-06
1e-06
1e-06
1e-06
1e-06
1e-06
1e-06
1e-06
1e-06
1e-06
3.776979e-05
1e-06
1e-06
1e-06
1e-06
1e-06
1e-06
3.635725e-05
1.908856e-05
1e-06
1e-06
1e-06
1e-06
1e-06
1e-06
1e-06
3.53934e-05
2.987925e-06
1.004018e-06
1e-06
1e-06
1e-06
1e-06
1e-06
1e-06
1e-06
1e-06
1e-06
3.261125e-05
1.501162e-06
1.001185e-06
1.00001e-06
1e-06
1e-06
1e-06
1e-06
1e-06
1e-06
1e-06
1e-06
1e-06
1e-06
1e-06
1e-06
1e-06
1e-06
3.023634e-05
1.151456e-06
1.000181e-06
1.000001e-06
1e-06
1e-06
1e-06
1e-06
1e-06
1e-06
1e-06
1e-06
1e-06
1e-06
1e-06
1e-06
1e-06
1e-06
2.937744e-05
1.049313e-06
1.000017e-06
1e-06
1e-06
1e-06
1e-06
1e-06
1e-06
1e-06
1e-06
1e-06
1e-06
1e-06
1e-06
1e-06
1e-06
1e-06
2.741886e-05
1.007606e-06
1.000001e-06
1e-06
1e-06
1e-06
1e-06
1e-06
1e-06
1e-06
1e-06
1e-06
1e-06
1e-06
1e-06
1e-06
1e-06
1e-06
2.48309e-05
1.00405e-06
1e-06
1e-06
1e-06
1e-06
1e-06
1e-06
1e-06
1e-06
1e-06
1e-06
1e-06
1e-06
1e-06
1e-06
1e-06
1e-06
2.451e-05
1.00414e-06
1e-06
1e-06
1e-06
1e-06
1e-06
1e-06
1e-06
1e-06
1e-06
1e-06
1e-06
1e-06
1e-06
1e-06
1e-06
1e-06
2.346739e-05
1.006537e-06
1.000001e-06
1e-06
1e-06
1e-06
1e-06
1e-06
1e-06
1e-06
1e-06
1e-06
1e-06
1e-06
1e-06
1e-06
1e-06
1e-06
2.114942e-05
1.007407e-06
1.000001e-06
1e-06
1e-06
1e-06
1e-06
1e-06
1e-06
1e-06
1e-06
1e-06
1e-06
1e-06
1e-06
1e-06
1e-06
1e-06
1.929182e-05
1.009494e-06
1.000007e-06
1e-06
1e-06
1e-06
1e-06
1e-06
1e-06
1e-06
1e-06
1e-06
1e-06
1e-06
1e-06
1e-06
1e-06
1e-06
1.501366e-05
1.006395e-06
1.000002e-06
1e-06
1e-06
1e-06
1e-06
1e-06
1e-06
1e-06
1e-06
1e-06
1e-06
1e-06
1e-06
1e-06
1e-06
1e-06
7.527083e-06
1.000698e-06
1e-06
1e-06
1e-06
1e-06
1e-06
1e-06
1e-06
1e-06
1e-06
1e-06
1e-06
1e-06
1e-06
1e-06
1e-06
1e-06
5.148492e-06
1.000501e-06
1e-06
1e-06
1e-06
1e-06
1e-06
1e-06
1e-06
1e-06
1e-06
1e-06
1e-06
1e-06
1e-06
1e-06
1e-06
1e-06
1.822914e-06
1.000119e-06
1e-06
1e-06
1e-06
1e-06
1e-06
1e-06
1e-06
1e-06
1e-06
1e-06
1e-06
1e-06
1e-06
1e-06
1e-06
1e-06
1.661963e-06
1.000115e-06
1e-06
1e-06
1e-06
1e-06
1e-06
1e-06
1e-06
1e-06
1e-06
1e-06
1e-06
1e-06
1e-06
1e-06
1e-06
1e-06
1.537325e-06
1.00007e-06
1e-06
1e-06
1e-06
1e-06
1e-06
1e-06
1e-06
1e-06
1e-06
1e-06
1e-06
1e-06
1e-06
1e-06
1e-06
1e-06
1.448584e-06
1.000035e-06
1e-06
1e-06
1e-06
1e-06
1e-06
1e-06
1e-06
1e-06
1e-06
1e-06
1e-06
1e-06
1e-06
1e-06
1e-06
1e-06
1.375905e-06
1.000025e-06
1e-06
1e-06
1e-06
1e-06
1e-06
1e-06
1e-06
1e-06
1e-06
1e-06
1e-06
1e-06
1e-06
1e-06
1e-06
1e-06
1.350942e-06
1.000027e-06
1e-06
1e-06
1e-06
1e-06
1e-06
1e-06
1e-06
1e-06
1e-06
1e-06
1e-06
1e-06
1e-06
1e-06
1e-06
1e-06
1.328228e-06
1.000023e-06
1e-06
1e-06
1e-06
1e-06
1e-06
1e-06