/*--------------------------------*- C++ -*----------------------------------*\
| =========                 |                                                 |
| \\      /  F ield         | OpenFOAM: The Open Source CFD Toolbox           |
|  \\    /   O peration     | Version:  2206                                  |
|   \\  /    A nd           | Website:  www.openfoam.com                      |
|    \\/     M anipulation  |                                                 |
\*---------------------------------------------------------------------------*/
FoamFile
{
    version     2.0;
    format      ascii;
    arch        "LSB;label=32;scalar=64";
    class       volScalarField;
    location    "1.8";
    object      nuFra;
}
// * * * * * * * * * * * * * * * * * * * * * * * * * * * * * * * * * * * * * //

dimensions      [0 2 -1 0 0 0 0];

internalField   nonuniform List<scalar> 
13078
(
0.02240192
2.583814
50.24077
100
100
100
100
3.878086
32.88972
68.3539
100
100
100
100
48.15117
79.4977
100
100
100
100
100
100
100
100
100
100
100
100
100
100
100
100
100
100
100
100
100
100
100
100
100
100
100
100
100
100
100
100
100
100
100
100
100
100
100
100
100
100
100
100
100
100
100
100
100
100
100
100
100
100
100
100
100
100
100
100
100
100
100
100
100
100
100
100
100
100
100
100
100
100
100
100
100
100
100
100
100
100
100
100
100
100
100
100
100
100
100
100
100
100
100
100
100
100
100
100
100
100
100
100
100
100
100
100
100
100
100
100
100
100
100
100
100
100
100
100
100
100
100
100
100
100
100
100
100
100
100
100
100
100
100
100
100
100
100
100
100
100
100
100
100
100
100
100
100
100
100
100
100
100
100
100
100
100
100
100
100
100
100
100
100
100
100
100
100
100
100
100
100
100
100
100
100
100
100
100
100
100
100
100
100
100
100
100
100
100
100
100
100
100
100
100
100
100
100
100
100
100
100
100
100
100
100
100
100
100
100
100
100
100
100
100
100
100
100
100
100
100
100
100
100
100
100
100
100
100
100
100
100
100
100
100
100
100
100
100
100
96.58288
57.88239
100
100
100
100
88.90689
53.06802
27.54231
100
100
100
80.65589
51.08553
29.92774
15.97163
100
93.84968
74.31536
50.6647
31.82795
19.37675
10.96284
82.27387
67.46712
51.32292
36.13911
23.49028
14.71845
9.130559
58.60883
50.59584
41.84318
30.97457
20.45059
12.81558
8.082264
43.42639
42.49982
40.25931
30.18569
19.27661
11.95815
7.651664
35.72312
38.48792
39.31629
29.07917
17.53231
11.03385
7.495285
32.02634
34.65769
34.61184
24.32378
15.2784
10.07023
7.261862
29.1144
30.33929
27.98819
18.94495
12.6777
9.25166
6.950062
25.6573
25.42224
21.90428
14.96044
10.44645
8.15366
6.62944
21.98822
20.53784
17.15796
12.19673
8.881678
7.255611
5.969823
18.30201
16.36922
13.80007
10.10073
7.962439
6.953241
5.913593
15.01599
13.23686
11.46974
8.901125
7.545137
6.929792
6.342994
12.27058
11.02268
10.00589
8.527744
7.826734
7.421937
6.598959
10.11745
9.458184
9.260183
8.685884
8.516081
8.001889
6.841301
8.578909
8.324872
8.82336
9.064187
9.10194
7.940718
6.307498
7.595714
7.602651
8.481005
9.269458
9.432159
7.665247
5.225679
6.998137
7.114822
8.169876
9.304204
9.576358
7.597046
4.825491
6.684576
6.845094
7.929428
9.187252
9.542112
7.78044
5.358182
6.671717
6.835641
7.881277
9.079045
9.558921
8.165877
6.100092
6.935248
7.080124
8.041848
9.011983
9.538325
8.487135
6.617122
7.400727
7.516167
8.330802
8.938553
9.359484
8.646827
6.862473
8.101067
8.156918
8.773067
8.942517
9.209435
8.908824
7.199482
9.1178
9.11176
9.417614
8.990972
8.963552
8.900131
7.803814
10.46129
10.28383
10.23863
9.29925
8.85477
8.713214
8.136509
12.06882
11.69534
11.43842
9.915709
9.033235
8.714442
8.442522
14.06876
13.57262
12.99917
10.97746
9.654863
9.115743
8.425618
16.63332
16.0868
14.98849
12.35384
10.27997
9.383678
8.680257
20.02738
19.2295
17.47177
13.59702
10.85604
9.690924
9.314706
24.57833
22.92112
20.2083
15.04463
11.46376
9.711478
8.920984
30.58346
27.36947
23.25256
16.82322
12.0181
9.41416
8.37719
39.76163
33.58611
27.05235
18.95242
12.6651
9.468597
7.886958
54.94047
43.68083
33.39904
22.09248
14.24967
10.00719
7.633198
77.40956
61.11913
45.18797
28.93198
17.66902
11.24953
7.977234
100
86.84263
68.10687
44.20259
25.03266
14.65816
9.568349
100
100
100
74.83712
42.956
23.4472
12.99845
100
100
100
100
81.25137
45.62473
22.81215
100
100
100
100
100
90.50824
49.10756
100
100
100
100
100
100
100
100
100
100
100
100
100
100
100
100
100
100
100
100
100
100
100
100
100
100
100
100
100
100
100
100
100
100
100
100
100
100
100
100
100
100
100
100
100
100
100
100
100
100
100
100
100
100
100
100
100
100
100
100
100
100
100
100
100
100
100
100
100
100
100
100
100
100
100
100
100
100
100
100
100
100
100
100
100
100
100
100
100
100
100
100
100
100
100
100
100
100
100
100
100
100
100
100
100
100
100
100
100
100
100
100
100
100
100
100
100
100
100
100
100
100
100
100
100
100
100
100
100
100
100
100
100
100
100
100
100
100
100
100
100
100
100
100
100
100
100
100
100
100
100
100
100
100
100
100
100
100
100
100
100
100
100
100
100
100
100
100
100
100
100
100
100
100
100
100
100
100
100
100
100
100
100
100
100
100
100
100
100
100
100
100
100
100
100
100
100
100
100
100
100
100
100
100
100
100
100
100
100
100
100
100
100
100
100
100
100
100
100
100
100
100
100
100
100
100
100
100
100
100
100
100
100
100
100
100
100
100
100
100
100
100
100
100
100
49.20153
81.18331
100
100
100
100
100
4.409657
35.10419
70.64467
100
100
100
100
100
100
100
100
100
100
100
100
100
100
100
100
100
100
100
100
100
100
100
100
100
100
100
100
100
100
100
100
100
100
100
100
100
100
100
100
100
100
100
100
100
100
100
100
100
100
100
100
100
100
100
100
100
100
100
100
100
100
100
100
100
100
100
100
100
100
100
100
100
100
100
100
100
100
100
100
100
100
100
100
100
100
100
100
100
100
100
100
100
100
100
100
100
100
100
100
100
100
100
100
100
100
100
100
100
100
100
100
100
100
100
100
100
100
100
100
100
100
100
100
100
100
100
100
100
100
100
100
100
100
100
100
100
100
100
100
100
100
100
95.21798
100
100
100
100
100
100
85.37719
100
100
100
100
100
100
78.4772
100
100
100
100
100
100
72.70499
100
100
100
100
100
100
67.16418
100
100
100
100
100
100
60.6983
100
100
100
100
100
100
53.89735
100
100
100
100
100
100
46.42826
100
100
100
100
100
100
38.45023
100
100
100
100
100
100
31.00572
100
100
100
100
100
100
22.4447
100
100
100
100
100
100
14.00264
100
100
100
100
100
88.03065
7.756554
100
100
100
100
82.82243
52.97011
3.807229
100
100
100
77.6906
45.67215
18.60381
1.587296
100
100
66.51011
43.95114
21.66551
6.26991
0.9853053
60.11758
52.3229
31.28998
23.12237
11.73544
4.022334
1.392913
26.42492
21.90584
14.3637
11.72857
8.485649
3.896039
2.485361
13.36269
10.85286
7.842376
7.538001
5.342437
2.167472
2.140617
8.148185
6.328823
4.950336
6.104244
3.471799
0.9296603
0.9568969
5.681173
4.249115
3.700488
5.587935
1.692807
0.4032126
0.2705425
4.519626
3.2189
2.746638
5.557044
0.6042844
0.1900642
0.09883643
4.154588
2.57161
2.213979
7.19505
0.2830931
0.1841745
0.1091598
3.941174
2.351522
1.800263
17.28249
0.2256187
0.2291061
0.2296548
3.773891
2.177232
1.810946
2.013676
0.1329207
0.1350693
0.07766082
3.978302
2.188578
2.21763
0.5399478
0.06841845
0.09702352
0.06961166
3.897329
2.132075
2.415973
0.1307098
0.07411021
0.1345565
0.07654117
3.712765
2.039187
2.160375
0.08010264
0.1122144
0.1596248
0.1301481
3.477786
2.030458
1.675935
0.2497417
0.06210134
0.1723738
0.2475606
3.442167
1.994086
1.522459
0.5703685
0.06537561
0.1163034
0.3352688
3.499545
2.025647
1.136918
0.7845349
0.06854437
0.05464187
0.1165919
3.554216
2.360499
1.834748
0.4565748
0.05442703
0.0580262
0.1674174
3.731186
2.481336
1.744749
0.3300237
0.19975
0.05578161
0.1370463
4.398009
3.934512
0.2773478
0.1441969
0.1616238
0.3091343
0.1285886
2.364928
0.7905682
0.1172779
0.3510395
0.2172225
0.1340527
0.08571121
1.818442
0.4373988
0.24564
0.6357728
0.4273828
0.09696232
0.01931175
2.600642
0.7476982
0.290629
0.4413097
0.2955932
0.1041323
3.429492
1.571892
0.4945507
0.1615231
0.387487
0.1708565
3.517512
2.008476
1.379855
0.2129041
0.1835721
0.1920689
3.424891
1.636949
3.031261
0.2804072
0.2768994
0.2083697
0.09421201
3.806703
1.797933
6.026878
0.3909197
0.3146737
0.2344929
0.07606295
4.154412
2.199188
2.798059
0.6780404
0.6347593
0.07059484
0.2368026
4.400895
2.151266
1.597126
0.8116268
0.07248327
0.06913098
0.517347
4.631574
2.26447
1.404641
0.4826984
0.05114814
0.1038138
0.2709754
4.744225
2.213251
1.354201
0.458392
0.05700025
0.1886297
0.4118012
5.084927
2.402009
1.48989
0.3257175
0.06890072
0.2552326
0.3767726
5.277544
2.451834
1.687618
0.2503307
0.07227918
0.1496522
0.1704571
5.402724
2.512243
1.913878
0.2453117
0.09302658
0.08975932
0.08540811
5.114838
2.373896
1.897425
0.3081478
0.1790339
0.1162547
0.1036193
4.630112
2.250562
1.734383
0.4241729
0.2417796
0.2208076
0.1210904
4.585513
2.372563
1.71677
1.237355
0.2269779
0.3168452
0.2028125
4.877864
2.768223
2.582532
2.781906
0.2892683
0.3301453
0.1392101
5.530686
3.271934
4.424395
5.018163
0.6177964
0.2408591
0.1222994
7.36692
4.242413
5.658839
7.303776
1.635177
0.4844118
0.2253748
12.05943
6.313686
6.792523
8.244333
2.681814
0.778115
0.6200397
23.95317
11.6423
10.80257
10.63627
4.497488
1.253014
1.02516
56.81189
26.88374
21.15196
19.07769
9.801785
2.938304
2.809079
100
69.14176
50.68587
36.02021
19.18177
5.586952
2.828526
100
100
100
67.45086
34.3234
10.40915
1.276122
100
100
100
99.59555
61.3086
26.73356
1.744746
100
100
100
100
94.67606
58.84492
3.094112
100
100
100
100
100
89.44126
6.080224
100
100
100
100
100
100
10.02148
100
100
100
100
100
100
17.99994
100
100
100
100
100
100
26.03953
100
100
100
100
100
100
33.32144
100
100
100
100
100
100
40.69938
100
100
100
100
100
100
48.1128
100
100
100
100
100
100
54.94511
100
100
100
100
100
100
61.66894
100
100
100
100
100
100
68.47401
100
100
100
100
100
100
75.50991
100
100
100
100
100
100
83.57518
100
100
100
100
100
100
93.53229
100
100
100
100
100
100
100
100
100
100
100
100
100
100
100
100
100
100
100
100
100
100
100
100
100
100
100
100
100
100
100
100
100
100
100
100
100
100
100
100
100
100
100
100
100
100
100
100
100
100
100
100
100
100
100
100
100
100
100
100
100
100
100
100
100
100
100
100
100
100
100
100
100
100
100
100
100
100
100
100
100
100
100
100
100
100
100
100
100
100
100
100
100
100
100
100
100
100
100
100
100
100
100
100
100
100
100
100
100
100
100
100
100
100
100
100
100
100
100
100
100
100
100
100
100
100
100
100
100
100
100
100
100
8.179793e-11
6.698642e-10
1.922498e-09
4.499839e-09
8.930746e-09
1.664991e-08
2.861282e-08
3.630855e-08
4.591098e-08
4.860375e-08
4.701199e-08
4.451371e-08
4.220202e-08
4.014049e-08
3.840807e-08
3.682611e-08
3.551316e-08
3.440023e-08
8.943268e-11
2.375878e-09
3.346473e-09
5.538046e-09
9.577518e-09
1.745303e-08
2.817443e-08
3.772371e-08
4.555153e-08
5.015382e-08
4.836451e-08
4.547591e-08
4.292397e-08
4.070644e-08
3.883468e-08
3.722338e-08
3.58465e-08
3.469464e-08
9.135935e-11
3.892972e-09
7.493401e-09
9.514125e-09
1.384595e-08
2.314313e-08
3.365236e-08
4.132062e-08
4.730735e-08
5.042698e-08
4.903415e-08
4.629835e-08
4.34717e-08
4.108636e-08
3.910831e-08
3.747757e-08
3.604065e-08
3.484962e-08
9.168503e-11
5.663446e-09
1.105409e-08
1.662093e-08
2.343221e-08
3.239327e-08
3.885187e-08
4.414556e-08
4.769035e-08
4.836383e-08
4.900117e-08
4.674363e-08
4.372645e-08
4.121496e-08
3.924255e-08
3.751334e-08
3.608965e-08
3.489837e-08
9.16489e-11
6.825291e-09
1.333122e-08
2.61562e-08
4.230972e-08
3.652937e-08
4.052596e-08
4.378265e-08
4.588553e-08
4.748258e-08
4.705706e-08
4.679489e-08
4.364337e-08
4.112831e-08
3.920899e-08
3.721487e-08
3.598977e-08
3.481103e-08
9.152071e-11
5.330916e-09
9.669936e-09
1.532571e-08
3.288802e-08
3.936355e-08
3.748341e-08
4.233357e-08
4.306003e-08
4.499037e-08
4.528206e-08
4.550427e-08
4.31348e-08
4.073925e-08
3.912781e-08
3.683429e-08
3.5733e-08
3.459456e-08
9.116916e-11
3.527827e-09
6.325355e-09
9.358857e-09
1.477639e-08
3.655573e-08
3.734472e-08
4.055056e-08
3.986047e-08
4.195581e-08
4.31381e-08
4.323247e-08
4.230858e-08
4.003414e-08
3.863187e-08
3.621568e-08
3.533403e-08
3.424816e-08
8.800519e-11
2.293943e-09
4.756868e-09
7.235095e-09
1.057157e-08
2.01447e-08
4.576488e-08
3.882055e-08
3.689831e-08
3.949181e-08
3.997446e-08
4.138126e-08
4.105201e-08
3.909897e-08
3.794505e-08
3.552702e-08
3.479673e-08
3.379211e-08
8.861678e-11
2.962588e-09
5.018625e-09
6.710297e-09
9.032764e-09
1.517467e-08
3.783072e-08
4.437745e-08
3.529972e-08
3.722067e-08
3.869263e-08
3.903092e-08
3.948119e-08
3.799477e-08
3.709844e-08
3.469953e-08
3.415914e-08
3.323453e-08
8.731568e-11
3.687811e-09
5.621168e-09
6.664146e-09
8.381491e-09
1.278798e-08
2.697509e-08
5.629517e-08
3.661778e-08
3.628828e-08
3.630044e-08
3.718343e-08
3.780376e-08
3.680155e-08
3.6123e-08
3.378944e-08
3.342329e-08
3.260581e-08
8.665586e-11
4.07294e-09
5.840752e-09
6.574757e-09
7.98264e-09
1.140635e-08
2.09067e-08
6.458195e-08
3.876222e-08
3.40883e-08
3.395842e-08
3.618736e-08
3.674433e-08
3.55044e-08
3.510008e-08
3.278881e-08
3.262071e-08
3.189979e-08
8.641215e-11
4.673626e-09
6.031225e-09
6.408862e-09
7.692183e-09
1.055437e-08
1.770091e-08
4.535715e-08
4.110503e-08
3.338017e-08
3.400194e-08
3.441138e-08
3.497583e-08
3.422017e-08
3.400863e-08
3.180006e-08
3.17438e-08
3.112175e-08
8.627069e-11
5.111023e-09
5.908049e-09
6.258732e-09
7.508495e-09
1.003624e-08
1.589124e-08
3.419114e-08
4.688141e-08
3.242581e-08
3.149872e-08
3.208841e-08
3.332937e-08
3.293611e-08
3.287238e-08
3.082758e-08
3.083149e-08
3.03112e-08
8.621819e-11
4.952252e-09
6.331216e-09
6.414604e-09
7.510597e-09
9.791082e-09
1.491115e-08
2.931239e-08
4.67758e-08
3.13789e-08
2.991557e-08
3.043647e-08
3.156489e-08
3.169222e-08
3.178179e-08
2.974084e-08
2.991266e-08
2.947303e-08
8.817904e-11
1.014299e-08
8.300457e-09
6.956751e-09
7.755257e-09
9.729455e-09
1.439303e-08
2.68619e-08
4.284654e-08
3.156909e-08
2.852717e-08
2.885857e-08
3.008955e-08
3.0437e-08
3.065633e-08
2.867585e-08
2.896741e-08
2.86098e-08
8.724379e-11
1.323816e-08
1.013129e-08
7.590568e-09
8.080945e-09
9.796461e-09
1.420385e-08
2.54313e-08
3.900039e-08
3.155189e-08
2.727413e-08
2.777286e-08
2.879456e-08
2.91988e-08
2.95283e-08
2.762087e-08
2.800583e-08
2.772362e-08
8.75711e-11
8.29238e-09
1.366369e-08
7.560251e-09
8.343342e-09
9.911476e-09
1.418529e-08
2.479086e-08
3.501202e-08
3.126688e-08
2.641338e-08
2.660277e-08
2.732655e-08
2.796014e-08
2.839809e-08
2.657771e-08
2.703897e-08
2.68213e-08
8.791452e-11
8.280594e-09
2.153986e-08
8.761669e-09
8.261503e-09
1.001772e-08
1.430603e-08
2.411434e-08
3.175609e-08
2.986001e-08
2.525675e-08
2.536458e-08
2.602431e-08
2.672597e-08
2.725209e-08
2.555597e-08
2.607748e-08
2.592231e-08
8.82802e-11
7.627889e-09
1.220493e-08
9.43002e-09
8.682337e-09
9.915773e-09
1.431991e-08
2.346637e-08
2.867339e-08
2.773315e-08
2.410037e-08
2.421752e-08
2.47909e-08
2.555788e-08
2.605353e-08
2.460233e-08
2.512079e-08
2.502323e-08
8.862475e-11
6.756762e-09
9.522856e-09
1.046285e-08
9.019108e-09
1.016198e-08
1.413981e-08
2.2459e-08
2.59099e-08
2.559755e-08
2.294076e-08
2.309592e-08
2.363312e-08
2.441319e-08
2.443766e-08
2.382686e-08
2.41655e-08
2.412153e-08
8.895748e-11
6.2318e-09
8.024136e-09
1.091509e-08
9.530059e-09
1.013279e-08
1.416562e-08
2.107257e-08
2.343251e-08
2.365963e-08
2.174422e-08
2.197447e-08
2.24876e-08
2.309698e-08
2.317414e-08
2.327809e-08
2.318434e-08
2.321178e-08
8.929594e-11
5.976671e-09
6.914909e-09
1.123271e-08
9.533787e-09
1.036313e-08
1.415567e-08
1.899627e-08
2.135504e-08
2.193841e-08
2.056746e-08
2.086559e-08
2.137316e-08
2.191714e-08
2.211149e-08
2.239834e-08
2.223443e-08
2.232511e-08
8.966278e-11
5.631739e-09
6.188381e-09
1.145188e-08
9.396489e-09
1.019256e-08
1.37275e-08
1.823717e-08
1.907694e-08
2.045624e-08
1.944873e-08
1.981009e-08
2.034019e-08
2.082374e-08
2.113578e-08
2.143192e-08
2.132202e-08
2.14293e-08
9.005619e-11
5.336747e-09
5.579675e-09
1.150766e-08
9.139916e-09
9.904223e-09
1.317331e-08
1.619866e-08
1.780192e-08
1.835899e-08
1.837121e-08
1.871377e-08
1.930907e-08
1.976316e-08
2.012726e-08
2.046064e-08
2.04056e-08
2.054115e-08
9.048326e-11
5.07518e-09
5.076266e-09
1.118054e-08
8.799378e-09
9.503588e-09
1.241686e-08
1.468905e-08
1.611282e-08
1.701922e-08
1.720262e-08
1.76118e-08
1.834801e-08
1.896112e-08
1.886527e-08
1.943568e-08
1.949033e-08
1.964644e-08
9.092481e-11
4.845389e-09
4.724616e-09
1.055665e-08
8.378711e-09
9.014643e-09
1.184026e-08
1.363796e-08
1.434343e-08
1.541955e-08
1.610592e-08
1.679072e-08
1.732283e-08
1.891072e-08
1.821914e-08
1.873616e-08
1.862657e-08
1.876629e-08
9.141308e-11
4.632886e-09
4.419906e-09
9.832363e-09
7.958631e-09
8.570127e-09
1.124915e-08
1.199052e-08
1.260162e-08
1.388826e-08
1.50049e-08
1.589429e-08
1.661561e-08
1.742185e-08
1.646067e-08
1.747234e-08
1.77237e-08
1.799178e-08
9.193562e-11
4.448888e-09
4.188671e-09
9.100464e-09
7.4734e-09
8.345555e-09
9.873592e-09
1.052117e-08
1.121977e-08
1.261329e-08
1.38976e-08
1.494144e-08
1.587806e-08
1.64877e-08
1.611644e-08
1.669523e-08
1.68583e-08
1.697844e-08
9.249509e-11
4.289767e-09
4.035374e-09
8.775939e-09
6.745989e-09
7.906999e-09
8.570614e-09
9.19343e-09
1.020275e-08
1.154643e-08
1.287448e-08
1.399527e-08
1.498944e-08
1.535604e-08
1.542072e-08
1.582815e-08
1.601235e-08
1.627595e-08
9.310994e-11
4.121844e-09
3.920736e-09
1.163343e-08
5.074456e-09
7.157321e-09
7.681467e-09
7.889825e-09
9.723962e-09
1.061337e-08
1.189783e-08
1.311149e-08
1.415327e-08
1.447632e-08
1.494018e-08
1.500749e-08
1.522642e-08
1.656646e-08
9.37832e-11
3.909717e-09
3.444245e-09
6.893906e-09
4.473985e-09
7.906111e-09
7.347475e-09
6.684651e-09
1.088183e-08
9.469554e-09
1.093643e-08
1.231112e-08
1.326547e-08
1.365222e-08
1.40691e-08
1.413765e-08
1.434707e-08
1.471801e-08
9.452722e-11
3.561365e-09
2.757842e-09
5.237986e-09
4.417266e-09
5.671128e-09
6.570916e-09
6.662522e-09
7.033905e-09
8.585506e-09
1.006476e-08
1.154945e-08
1.259733e-08
1.255002e-08
1.323e-08
1.334908e-08
1.358938e-08
1.389531e-08
9.528852e-11
3.016816e-09
2.216338e-09
2.409228e-09
5.213501e-09
4.934068e-09
5.531388e-09
5.925126e-09
6.688075e-09
8.202739e-09
9.586753e-09
1.097878e-08
1.217632e-08
1.216604e-08
1.236519e-08
1.253307e-08
1.320292e-08
1.229375e-08
9.672532e-11
2.965852e-09
2.530489e-09
2.252915e-09
3.097213e-09
4.779502e-09
4.930815e-09
5.659201e-09
6.33534e-09
7.350147e-09
9.195172e-09
1.055171e-08
1.137977e-08
1.105407e-08
1.149555e-08
1.163181e-08
1.159653e-08
1.175306e-08
9.99949e-11
2.578475e-09
2.576244e-09
1.942744e-09
2.301647e-09
4.991078e-09
4.080897e-09
4.933358e-09
5.584585e-09
7.371407e-09
9.289934e-09
1.018054e-08
9.948169e-09
1.064323e-08
1.080026e-08
1.092394e-08
1.098975e-08
1.158519e-08
1.051558e-10
1.7804e-09
1.619909e-09
1.66052e-09
2.029861e-09
5.774001e-09
4.37237e-09
4.556964e-09
7.370759e-09
7.098566e-09
8.706665e-09
9.665917e-09
1.021612e-08
9.956083e-09
1.002152e-08
1.094421e-08
1.034687e-08
1.099728e-08
1.101194e-10
1.047092e-09
1.13011e-09
1.569424e-09
2.25896e-09
3.370163e-09
3.916787e-09
6.35388e-09
5.720421e-09
6.718084e-09
8.138137e-09
8.873498e-09
8.560626e-09
9.264521e-09
9.228948e-09
8.970565e-09
8.882337e-09
9.768535e-09
1.385622e-10
4.827041e-10
1.212081e-09
1.916324e-09
2.223993e-09
2.785862e-09
3.750099e-09
5.258681e-09
5.966062e-09
6.937524e-09
7.90683e-09
8.527004e-09
8.304726e-09
8.293694e-09
8.472806e-09
8.061657e-09
9.05074e-09
9.149727e-09
1.648947e-10
2.513393e-10
1.454376e-09
1.226172e-09
1.785205e-09
2.649189e-09
3.825591e-09
5.277758e-09
6.057418e-09
7.098663e-09
7.319816e-09
7.123062e-09
7.214264e-09
7.426311e-09
8.141811e-09
7.810366e-09
8.18378e-09
8.425199e-09
8.189815e-08
3.276915e-10
5.421574e-10
1.243833e-09
2.113166e-09
3.152829e-09
4.352487e-09
5.651021e-09
6.374038e-09
6.849342e-09
6.581282e-09
6.328806e-09
6.518396e-09
6.66479e-09
6.602054e-09
6.949111e-09
7.39768e-09
7.748408e-09
0.0002310957
1.558871e-10
1.168915e-09
1.202926e-09
2.231713e-09
3.76393e-09
5.011823e-09
6.038935e-09
6.346096e-09
5.712451e-09
5.807794e-09
5.363433e-09
5.82276e-09
6.267098e-09
5.655968e-09
6.198477e-09
6.478998e-09
6.88933e-09
0.00125342
1.237624e-10
2.047809e-09
2.224299e-09
2.955282e-09
4.165104e-09
5.533928e-09
6.065151e-09
5.174752e-09
4.997074e-09
5.162503e-09
4.852228e-09
5.001674e-09
5.053357e-09
5.075676e-09
5.515028e-09
5.810301e-09
6.260908e-09
0.008773802
9.840924e-11
1.485162e-09
2.547862e-09
3.781971e-09
7.148442e-09
4.871693e-09
4.389799e-09
4.339993e-09
4.278685e-09
3.727311e-09
4.387609e-09
4.43101e-09
4.046188e-09
4.653514e-09
4.919082e-09
5.351892e-09
5.267846e-09
0.009981196
9.858534e-11
1.472121e-09
1.975415e-09
3.598902e-09
5.372653e-09
3.899276e-09
3.562736e-09
3.657934e-09
3.720163e-09
3.343579e-09
3.637746e-09
3.532668e-09
3.971778e-09
4.215556e-09
4.462455e-09
4.482566e-09
5.025376e-09
0.02482443
8.913725e-11
1.29334e-09
1.302343e-09
4.368929e-09
3.963376e-09
3.515616e-09
3.092051e-09
2.860905e-09
3.053568e-09
3.073664e-09
3.247002e-09
2.979077e-09
3.476284e-09
3.785921e-09
3.716099e-09
4.196297e-09
4.589236e-09
0.0377741
8.708504e-11
5.559443e-10
9.300357e-10
2.165962e-09
2.686445e-09
2.74756e-09
2.441931e-09
2.373269e-09
2.288869e-09
2.471229e-09
2.610372e-09
2.779768e-09
3.030539e-09
3.030207e-09
3.611459e-09
3.798033e-09
3.795949e-09
0.04130703
9.332418e-11
2.747712e-10
1.072983e-09
1.462282e-09
1.91811e-09
1.924711e-09
1.884329e-09
1.8844e-09
2.089535e-09
2.048322e-09
2.150681e-09
2.354444e-09
2.561869e-09
2.901444e-09
2.850098e-09
3.428487e-09
3.762359e-09
0.04071254
1.353355e-10
4.268208e-10
9.91617e-10
1.048938e-09
1.258277e-09
1.418078e-09
1.432502e-09
1.559883e-09
1.571122e-09
1.639656e-09
1.74225e-09
1.975821e-09
2.297424e-09
2.305853e-09
2.990202e-09
2.806059e-09
3.494617e-09
0.1288168
1.881786e-10
4.751853e-10
5.38459e-10
7.55819e-10
9.38422e-10
1.151967e-09
1.107324e-09
1.082851e-09
1.477843e-09
1.287516e-09
1.577615e-09
1.769762e-09
1.708559e-09
2.399695e-09
2.091535e-09
2.925847e-09
2.842274e-09
0.1185231
1.447903e-10
2.404289e-10
2.451114e-10
6.244485e-10
8.903804e-10
1.105406e-09
1.365201e-09
1.334642e-09
1.787301e-09
1.738125e-09
2.307624e-09
2.189888e-09
2.987768e-09
0.1264287
8.125212e-05
7.490916e-10
8.980986e-10
1.272046e-09
1.301857e-09
1.523436e-09
2.051385e-09
2.230496e-09
2.518706e-09
0.1879131
8.279203e-10
9.774118e-10
1.112254e-09
1.514417e-09
1.806591e-09
1.870919e-09
2.358727e-09
1.451965e-09
9.980587e-10
1.14922e-09
1.654506e-09
1.815899e-09
2.175434e-09
1.12742e-09
1.266887e-09
1.297906e-09
1.763127e-09
2.113525e-09
8.099485e-10
9.761941e-10
1.333227e-09
1.629651e-09
1.931256e-09
7.811815e-10
1.044075e-09
1.259733e-09
1.559435e-09
1.874821e-09
7.409169e-10
9.744012e-10
1.230851e-09
1.521769e-09
1.833265e-09
7.168731e-10
9.483566e-10
1.246151e-09
1.535728e-09
1.826528e-09
7.164199e-10
9.914222e-10
1.236891e-09
1.592143e-09
1.872162e-09
7.713787e-10
7.608002e-10
1.054161e-09
1.292571e-09
1.564712e-09
1.946492e-09
1.098269
8.618408e-10
9.029621e-10
1.166265e-09
1.373785e-09
1.70516e-09
1.947359e-09
0.1252003
0.000125795
8.942562e-10
9.00414e-10
9.767019e-10
1.299951e-09
1.497789e-09
1.867185e-09
2.196213e-09
0.07949844
1.309668e-10
3.747733e-10
5.763861e-10
8.837965e-10
7.978472e-10
9.109794e-10
1.318175e-09
1.2869e-09
1.639406e-09
1.781185e-09
2.258751e-09
0.01783304
2.481291e-10
2.562094e-10
4.80401e-10
4.881784e-10
5.648347e-10
5.955801e-10
6.177216e-10
7.377321e-10
8.026381e-10
9.039383e-10
9.197126e-10
1.113747e-09
1.227009e-09
1.687256e-09
1.634186e-09
2.099377e-09
2.248561e-09
0.005953664
2.851226e-10
5.173686e-10
4.051199e-10
5.595464e-10
6.525117e-10
7.181646e-10
7.626594e-10
8.298216e-10
9.250362e-10
9.802962e-10
1.172787e-09
1.37248e-09
1.410031e-09
1.622426e-09
2.004077e-09
2.291443e-09
2.526166e-09
0.005498065
1.584966e-10
2.536705e-10
5.03831e-10
6.924545e-10
7.422146e-10
8.545362e-10
9.203557e-10
9.545606e-10
1.096023e-09
1.115777e-09
1.407355e-09
1.38241e-09
1.863557e-09
1.817179e-09
2.16083e-09
2.431775e-09
2.827867e-09
0.02783593
9.535732e-11
2.652185e-10
4.518004e-10
6.394223e-10
8.459855e-10
9.737756e-10
1.064404e-09
1.174032e-09
1.282627e-09
1.355622e-09
1.466547e-09
1.67738e-09
1.785335e-09
2.232275e-09
2.37061e-09
2.626526e-09
2.79768e-09
0.008213808
8.928704e-11
4.868198e-10
5.111231e-10
8.009907e-10
1.075732e-09
1.114463e-09
1.23764e-09
1.361895e-09
1.483552e-09
1.792235e-09
1.695446e-09
1.945014e-09
2.020837e-09
2.444423e-09
2.531638e-09
2.806336e-09
3.523018e-09
0.02667435
1.049397e-10
9.840772e-10
8.44211e-10
1.076591e-09
1.217101e-09
1.302282e-09
1.432468e-09
1.565578e-09
1.571585e-09
1.639137e-09
1.947087e-09
2.42383e-09
2.235083e-09
2.531703e-09
2.914764e-09
3.12169e-09
3.318108e-09
0.01172375
1.089874e-10
1.223051e-09
1.046866e-09
1.190743e-09
1.330563e-09
1.492369e-09
1.626183e-09
1.74328e-09
1.873441e-09
2.175235e-09
2.121707e-09
2.359745e-09
2.683145e-09
2.745907e-09
3.129264e-09
3.517444e-09
3.714727e-09
0.001835503
1.255346e-10
1.153515e-09
1.708938e-09
1.489921e-09
1.338711e-09
1.597354e-09
1.757214e-09
1.924474e-09
2.060208e-09
2.322944e-09
2.517064e-09
2.694155e-09
3.209954e-09
3.256694e-09
3.449821e-09
3.713731e-09
4.184421e-09
0.0004807024
1.768168e-10
1.952127e-09
1.303617e-09
1.443445e-09
1.662616e-09
1.654047e-09
1.892533e-09
2.122597e-09
2.283369e-09
2.487126e-09
2.705311e-09
2.912533e-09
3.097253e-09
3.642369e-09
3.778853e-09
4.095697e-09
4.358623e-09
3.424385e-05
2.583896e-10
5.096655e-10
8.458675e-10
1.479519e-09
1.902683e-09
1.911517e-09
2.114774e-09
2.299962e-09
2.523195e-09
2.752255e-09
3.140174e-09
3.286467e-09
3.413189e-09
3.748161e-09
4.128182e-09
4.40133e-09
4.688135e-09
1.500407e-10
3.457963e-10
1.35762e-09
1.944424e-09
2.33672e-09
2.48676e-09
2.326762e-09
2.402118e-09
2.585521e-09
2.756872e-09
2.998743e-09
3.39748e-09
3.497716e-09
3.825867e-09
4.007258e-09
4.321851e-09
4.697669e-09
5.026162e-09
1.529329e-10
3.532472e-10
2.16557e-09
2.353387e-09
3.213356e-09
3.221731e-09
2.932474e-09
2.854506e-09
2.994176e-09
3.117651e-09
3.337288e-09
3.700589e-09
3.894276e-09
4.203608e-09
4.440074e-09
4.493122e-09
4.992829e-09
5.414534e-09
1.076828e-10
7.443081e-10
1.64102e-09
4.314484e-09
6.829858e-09
4.563292e-09
3.928631e-09
3.275006e-09
3.703645e-09
3.641034e-09
3.761572e-09
4.015178e-09
4.077728e-09
4.493994e-09
4.822632e-09
5.564578e-09
5.192665e-09
5.774542e-09
1.040559e-10
1.424695e-09
1.902346e-09
2.486408e-09
5.241963e-09
6.111811e-09
6.303179e-09
3.373087e-09
4.487759e-09
4.352762e-09
4.263074e-09
4.415613e-09
4.725759e-09
4.948942e-09
5.275438e-09
5.837513e-09
6.330282e-09
6.386075e-09
9.822947e-11
1.564967e-09
2.451975e-09
2.451148e-09
5.063466e-09
4.24975e-09
6.419761e-09
6.177242e-09
4.0981e-09
5.101154e-09
4.651973e-09
4.778293e-09
5.174687e-09
5.268203e-09
5.66747e-09
5.857404e-09
5.884638e-09
6.727193e-09
9.213813e-11
1.220571e-09
3.501909e-09
2.463116e-09
1.853197e-09
6.749443e-09
6.501055e-09
7.647198e-09
6.637567e-09
5.939076e-09
5.358295e-09
5.388739e-09
5.804825e-09
5.811404e-09
6.166417e-09
6.470686e-09
7.063548e-09
6.939676e-09
9.365604e-11
1.373019e-09
2.600619e-09
1.807458e-09
2.623446e-09
6.482137e-09
7.345844e-09
8.163587e-09
6.83835e-09
6.636417e-09
6.161194e-09
6.059368e-09
6.266053e-09
6.402259e-09
6.711301e-09
7.055345e-09
7.677078e-09
7.927119e-09
9.36712e-11
2.025047e-09
3.211249e-09
2.51028e-09
3.437111e-09
6.078727e-09
7.404602e-09
8.034407e-09
8.970781e-09
7.257872e-09
6.857421e-09
6.74644e-09
6.800427e-09
6.66298e-09
7.214769e-09
7.571378e-09
7.905087e-09
8.238484e-09
9.316104e-11
2.541404e-09
3.848415e-09
3.656362e-09
3.96803e-09
6.527905e-09
7.570306e-09
9.74774e-09
6.526232e-09
8.023349e-09
7.557906e-09
7.410268e-09
7.34791e-09
7.529121e-09
7.814321e-09
8.145329e-09
8.473538e-09
9.011346e-09
9.262368e-11
2.825275e-09
4.144042e-09
4.379758e-09
6.147961e-09
4.499811e-09
7.170847e-09
1.009122e-08
7.680787e-09
8.393078e-09
8.170177e-09
8.053927e-09
7.958061e-09
8.1348e-09
8.378436e-09
8.739909e-09
9.160379e-09
9.996074e-09
9.213125e-11
3.074981e-09
5.020137e-09
6.118313e-09
5.285761e-09
4.897554e-09
7.143394e-09
9.288782e-09
9.127175e-09
9.041144e-09
8.850044e-09
8.714059e-09
8.528378e-09
8.744738e-09
8.939008e-09
9.356553e-09
9.712611e-09
9.886133e-09
9.169735e-11
3.26488e-09
5.700588e-09
6.700217e-09
5.239067e-09
5.333754e-09
7.21275e-09
9.396806e-09
1.007654e-08
9.785905e-09
9.586904e-09
9.394048e-09
9.232138e-09
9.687326e-09
9.49009e-09
1.000938e-08
1.036115e-08
1.068229e-08
9.13013e-11
3.44475e-09
6.33774e-09
7.345865e-09
5.39665e-09
5.651827e-09
7.186553e-09
9.608147e-09
1.073767e-08
1.051763e-08
1.031765e-08
1.006891e-08
1.001596e-08
1.041486e-08
1.0074e-08
1.067041e-08
1.104126e-08
1.148536e-08
9.092793e-11
3.623494e-09
6.994807e-09
8.096826e-09
5.667379e-09
5.93007e-09
7.234334e-09
9.80524e-09
1.131984e-08
1.123755e-08
1.105077e-08
1.067461e-08
1.085571e-08
1.131187e-08
1.131894e-08
1.148175e-08
1.173586e-08
1.20889e-08
9.05697e-11
3.786471e-09
7.651899e-09
8.861688e-09
5.971842e-09
6.196501e-09
7.375246e-09
9.767677e-09
1.167233e-08
1.191999e-08
1.16033e-08
1.159941e-08
1.160305e-08
1.156126e-08
1.121628e-08
1.204e-08
1.243537e-08
1.282733e-08
9.026351e-11
3.901456e-09
8.347745e-09
9.62404e-09
6.293312e-09
6.479804e-09
7.585843e-09
9.732374e-09
1.211339e-08
1.239057e-08
1.260103e-08
1.244077e-08
1.240811e-08
1.236533e-08
1.255673e-08
1.291667e-08
1.319947e-08
1.357669e-08
8.995786e-11
4.130777e-09
9.017199e-09
1.021129e-08
6.598894e-09
6.746383e-09
7.798198e-09
9.781361e-09
1.216236e-08
1.350775e-08
1.338568e-08
1.331001e-08
1.325911e-08
1.319229e-08
1.334255e-08
1.370382e-08
1.397701e-08
1.434753e-08
8.969116e-11
4.242951e-09
9.659277e-09
1.065255e-08
6.87419e-09
6.992696e-09
7.997777e-09
9.882187e-09
1.25686e-08
1.392629e-08
1.429384e-08
1.428037e-08
1.414719e-08
1.405196e-08
1.417366e-08
1.451053e-08
1.478207e-08
1.513236e-08
8.945027e-11
4.385661e-09
1.040958e-08
1.088801e-08
7.108965e-09
7.201355e-09
8.443986e-09
9.927573e-09
1.222108e-08
1.45122e-08
1.52755e-08
1.530121e-08
1.508426e-08
1.4968e-08
1.507498e-08
1.536241e-08
1.562285e-08
1.592553e-08
8.925193e-11
4.564442e-09
1.116292e-08
1.082052e-08
7.30284e-09
7.970355e-09
8.011184e-09
1.013217e-08
1.249346e-08
1.48945e-08
1.62681e-08
1.625169e-08
1.61314e-08
1.591579e-08
1.579601e-08
1.604368e-08
1.646243e-08
1.676195e-08
8.905935e-11
4.649883e-09
1.18063e-08
1.041174e-08
8.70357e-09
6.73659e-09
8.564017e-09
1.05511e-08
1.289319e-08