/*--------------------------------*- C++ -*----------------------------------*\
| =========                 |                                                 |
| \\      /  F ield         | OpenFOAM: The Open Source CFD Toolbox           |
|  \\    /   O peration     | Version:  2206                                  |
|   \\  /    A nd           | Website:  www.openfoam.com                      |
|    \\/     M anipulation  |                                                 |
\*---------------------------------------------------------------------------*/
FoamFile
{
    version     2.0;
    format      ascii;
    arch        "LSB;label=32;scalar=64";
    class       volScalarField;
    location    "1.8";
    object      omega.b_0;
}
// * * * * * * * * * * * * * * * * * * * * * * * * * * * * * * * * * * * * * //

dimensions      [0 0 -1 0 0 0 0];

internalField   nonuniform List<scalar> 
13078
(
6.495683
0.4478462
0.3562695
0.3557783
0.3566279
0.3576367
0.3588068
6.57947
0.4340542
0.3556108
0.3556999
0.3565932
0.3576103
0.3587806
6.585492
0.4307216
0.3554972
0.3556292
0.356546
0.3575752
0.3587491
6.591679
0.4293727
0.3554315
0.3555747
0.356502
0.3575392
0.3587159
6.598133
0.4289102
0.3553942
0.3555486
0.3564661
0.3575052
0.3586835
6.604802
0.4286861
0.3553765
0.355533
0.3564511
0.3574762
0.3586524
6.611848
0.4286284
0.3553747
0.3555208
0.356441
0.357466
0.358625
6.619131
0.4286631
0.3553798
0.3555142
0.356435
0.3574592
0.3586169
6.626655
0.428709
0.3553797
0.3555123
0.3564315
0.3574544
0.3586112
6.634488
0.4287983
0.3553815
0.3555116
0.3564293
0.3574508
0.3586067
6.642682
0.4289167
0.3553837
0.3555113
0.3564276
0.357448
0.3586027
6.651186
0.4290571
0.355386
0.3555111
0.3564263
0.3574455
0.3585992
6.660084
0.4292155
0.3553884
0.3555107
0.3564252
0.3574433
0.3585959
6.669375
0.4293906
0.3553906
0.35551
0.3564235
0.3574409
0.3585925
6.679072
0.4295802
0.3553933
0.3555046
0.3564149
0.3574379
0.3585892
6.689206
0.4297841
0.355396
0.3554976
0.3564079
0.357435
0.3585857
6.69983
0.4300014
0.3553984
0.3554959
0.3564057
0.3574323
0.3585821
6.710875
0.4302322
0.3554009
0.3554944
0.3564035
0.3574296
0.3585782
6.722538
0.4304787
0.3554035
0.3554929
0.3564009
0.3574259
0.3585742
6.734686
0.43074
0.3554061
0.3554907
0.356391
0.3574115
0.358569
6.747501
0.4310191
0.355409
0.3554882
0.3563787
0.3573998
0.3585636
6.760849
0.4313163
0.3554123
0.3554863
0.3563748
0.3573953
0.3585587
6.77492
0.4316343
0.3554157
0.355484
0.3563714
0.3573903
0.3585523
6.789678
0.4319757
0.3554195
0.3554817
0.3563667
0.3573749
0.3585305
6.805169
0.4323438
0.355424
0.3554792
0.3563619
0.3573557
0.3585124
6.821431
0.4327429
0.3554289
0.3554766
0.3563576
0.3573485
0.3585041
6.838694
0.4331719
0.3554347
0.3554739
0.356353
0.3573418
0.358496
6.860783
0.4336814
0.3554426
0.3554711
0.356348
0.3573334
0.3584714
6.889513
0.4341646
0.3554498
0.3554683
0.3563426
0.3573244
0.3584395
6.964902
0.4353438
0.3554726
0.3554654
0.3563372
0.3573166
0.358428
7.077899
0.4367306
0.3554726
0.3554617
0.3563312
0.3573077
0.3584134
7.116328
0.4388814
0.3554639
0.3554553
0.3563239
0.3572983
0.358399
7.153722
0.4416312
0.3555359
0.3554511
0.3563135
0.3572876
0.3583859
7.186843
0.4428621
0.3555716
0.3554493
0.3563015
0.3572725
0.3583694
7.221339
0.444168
0.3555969
0.3554352
0.3563074
0.3572533
0.3583504
7.257503
0.4455717
0.3556342
0.3554002
0.3562796
0.3572516
0.3583431
7.295303
0.4470646
0.3556813
0.3554024
0.3562305
0.357245
0.3583399
7.335036
0.4487357
0.3557293
0.3553927
0.3562081
0.3571889
0.3583034
7.38517
0.4506869
0.3557784
0.3553657
0.3561474
0.3570789
0.3582661
7.498027
0.4538246
0.3558293
0.355287
0.3560832
0.3570144
0.3582183
7.673727
0.4596375
0.355774
0.3551807
0.3559549
0.3568785
0.3580136
7.748899
0.46529
0.3557477
0.3549438
0.3557092
0.3566758
0.3578134
7.810551
0.4680621
0.3555443
0.3546141
0.3554434
0.3563703
0.3575566
7.878367
0.4696822
0.3551951
0.3542709
0.3551382
0.3560837
0.3572589
7.986785
0.470496
0.354869
0.3539338
0.3546814
0.3557556
0.3569421
8.166383
0.4720782
0.3545107
0.3535164
0.3542271
0.3551682
0.3564104
8.255065
0.4743231
0.3542217
0.353124
0.3536383
0.3544886
0.3555529
8.326448
0.4754746
0.3537569
0.3526293
0.3530238
0.3538734
0.3546855
8.392387
0.4773568
0.3532986
0.3520242
0.3524133
0.3531331
0.353919
8.454242
0.4795379
0.3528779
0.351483
0.3518266
0.352404
0.3532661
8.544531
0.4838958
0.3525967
0.3510425
0.3513252
0.3518036
0.3525436
8.7852
0.4907491
0.3523503
0.3507085
0.3509788
0.3514236
0.351951
8.871556
0.4933189
0.3520459
0.3502905
0.350643
0.351177
0.3516933
8.908418
0.4946586
0.3517566
0.3499891
0.3504175
0.3510218
0.3516569
8.926372
0.4953499
0.3515148
0.3497488
0.3502113
0.3508147
0.3514326
8.928734
0.4949916
0.3512924
0.3495218
0.349985
0.3505662
0.3512261
8.928633
0.4937285
0.3511911
0.3494774
0.3499669
0.3505322
0.3511426
8.92624
0.4919434
0.3513227
0.3496869
0.3501439
0.35071
0.3513157
8.908281
0.4894208
0.3514985
0.3499204
0.3503204
0.3508722
0.3514496
8.871326
0.4865632
0.351711
0.3502002
0.3505259
0.3510295
0.3515383
8.784922
0.483002
0.351989
0.3505986
0.350894
0.3513438
0.3518467
8.544265
0.4756965
0.3522647
0.3510024
0.3512735
0.3517187
0.3524052
8.454086
0.4712538
0.3525663
0.3514076
0.3517227
0.3522427
0.3530269
8.392291
0.4692162
0.3529981
0.3518971
0.352243
0.3529196
0.3536443
8.326439
0.4681491
0.3534723
0.3524474
0.3528679
0.3536801
0.3544273
8.255065
0.4687961
0.3539906
0.3529859
0.3534986
0.3543124
0.3553195
8.166384
0.4683603
0.3543735
0.3534205
0.3540964
0.3549692
0.3560708
7.986786
0.4673831
0.3547787
0.3538864
0.354556
0.3555161
0.3565731
7.878367
0.466592
0.3551076
0.3542546
0.355031
0.3558549
0.3570091
7.810551
0.4648675
0.355445
0.3545876
0.3553639
0.3562194
0.3573103
7.749113
0.4619856
0.3556618
0.3549196
0.3556423
0.3565914
0.357628
7.67813
0.4570906
0.3557164
0.3551683
0.3559134
0.3568134
0.3579055
7.535476
0.452448
0.3557439
0.3553157
0.3560884
0.3569917
0.3581561
7.439017
0.4498083
0.3557064
0.3553706
0.3561745
0.3570981
0.3582745
7.388643
0.4481807
0.3556637
0.3553853
0.3562058
0.3571959
0.3583056
7.344499
0.4462728
0.3556149
0.3553864
0.3562377
0.35724
0.3583189
7.300798
0.4446419
0.3555863
0.3553905
0.3562791
0.3572304
0.3583239
7.237693
0.4432194
0.3555649
0.3554291
0.3562956
0.3572493
0.3583465
7.190731
0.4419685
0.3555442
0.3554443
0.3562991
0.3572702
0.3583669
7.154756
0.4409413
0.3555145
0.3554471
0.3563109
0.3572846
0.3583828
7.116393
0.4383544
0.3554482
0.355453
0.3563213
0.3572955
0.3583964
7.077899
0.4363377
0.3554613
0.3554595
0.3563289
0.3573054
0.3584111
6.964902
0.4350731
0.3554641
0.3554635
0.3563352
0.3573147
0.358426
6.889513
0.433953
0.3554435
0.3554667
0.3563411
0.3573229
0.3584379
6.860783
0.4335259
0.3554379
0.3554698
0.3563467
0.3573321
0.3584698
6.838694
0.4330568
0.3554313
0.3554728
0.3563519
0.3573406
0.3584947
6.821431
0.4326582
0.3554263
0.3554757
0.3563567
0.3573475
0.3585031
6.805169
0.4322814
0.3554221
0.3554785
0.3563611
0.3573549
0.3585116
6.789678
0.4319296
0.3554182
0.355481
0.3563661
0.3573742
0.3585299
6.77492
0.4315998
0.3554147
0.3554835
0.3563708
0.3573897
0.3585519
6.760849
0.4312904
0.3554115
0.3554858
0.3563743
0.3573948
0.3585582
6.747501
0.4309992
0.3554084
0.3554879
0.3563785
0.3573995
0.3585632
6.734686
0.4307241
0.3554057
0.3554905
0.3563908
0.3574114
0.3585688
6.722538
0.4304655
0.3554032
0.3554929
0.3564008
0.3574258
0.3585742
6.710875
0.4302203
0.3554008
0.3554944
0.3564035
0.3574295
0.3585782
6.69983
0.4299897
0.3553984
0.355496
0.3564057
0.3574323
0.358582
6.689206
0.4297716
0.3553961
0.3554978
0.356408
0.357435
0.3585856
6.679072
0.4295658
0.3553935
0.3555049
0.356415
0.3574379
0.3585892
6.669375
0.4293728
0.355391
0.3555105
0.3564237
0.357441
0.3585925
6.660084
0.4291929
0.3553888
0.3555113
0.3564254
0.3574433
0.3585957
6.651186
0.4290272
0.3553865
0.3555117
0.3564265
0.3574453
0.3585987
6.642682
0.4288764
0.3553843
0.355512
0.3564277
0.3574475
0.3586019
6.634488
0.4287431
0.355382
0.3555122
0.3564289
0.3574498
0.3586053
6.626655
0.4286318
0.3553799
0.3555125
0.3564304
0.3574525
0.358609
6.619131
0.4285526
0.3553791
0.3555133
0.3564325
0.357456
0.3586136
6.611848
0.4284668
0.3553716
0.3555176
0.3564362
0.3574608
0.3586202
6.604802
0.4284457
0.3553682
0.3555254
0.3564425
0.3574683
0.3586457
6.598133
0.428546
0.3553754
0.3555334
0.3564521
0.3574938
0.3586747
6.591679
0.4287732
0.3553929
0.3555482
0.356481
0.357524
0.3587056
6.585492
0.4293395
0.3554263
0.3555871
0.3565179
0.3575575
0.3587382
6.57947
0.4301294
0.3554693
0.3556419
0.3565612
0.3575935
0.3587715
6.495683
0.4296344
0.3555565
0.3557139
0.3566121
0.3576311
0.3588046
0.3601889
0.3619285
0.3642519
0.3664787
0.3704469
0.3767702
0.3938075
0.3601591
0.3618903
0.3642015
0.3664195
0.3703738
0.3766668
0.4005416
0.3601264
0.3618512
0.3641531
0.3671861
0.3703087
0.3765646
0.4001096
0.3600926
0.3618115
0.3641015
0.3663001
0.3702298
0.3764627
0.3996843
0.3600594
0.3617716
0.3640522
0.366235
0.3701568
0.3763613
0.3993293
0.3600267
0.3617317
0.3640017
0.3661739
0.370085
0.3762607
0.3989865
0.359995
0.3616924
0.3639516
0.3661151
0.370065
0.3761617
0.3986533
0.3599663
0.3616536
0.3639022
0.3660575
0.3700464
0.3760639
0.3983256
0.3599586
0.361618
0.363855
0.3659988
0.3699893
0.3759745
0.3979803
0.3599529
0.3616088
0.3638112
0.3659406
0.3699327
0.3758856
0.3975506
0.3599479
0.3616019
0.3637997
0.3658841
0.3698765
0.3757973
0.3970916
0.3599431
0.3615951
0.3637908
0.3658718
0.3698199
0.3757089
0.3964702
0.3599385
0.3615884
0.3637817
0.3658608
0.3698102
0.3756189
0.3958112
0.3599338
0.3615817
0.3637724
0.3658494
0.3697993
0.3756014
0.3953138
0.3599291
0.3615746
0.3637627
0.3658375
0.3697878
0.375581
0.3945108
0.3599241
0.3615672
0.3637527
0.3658251
0.3697754
0.375559
0.3937471
0.3599191
0.3615596
0.3637423
0.3658119
0.3697573
0.375536
0.3932128
0.3599138
0.3615519
0.3637313
0.365792
0.3695851
0.3755117
0.3926517
0.3599082
0.3615441
0.36372
0.3657775
0.369562
0.3754866
0.3921738
0.3599023
0.3615359
0.3637081
0.3657625
0.3695431
0.3754602
0.3916572
0.3598961
0.3615273
0.3636957
0.3657467
0.3695233
0.3754327
0.3911428
0.3598895
0.3615182
0.3636827
0.3657299
0.3695026
0.3754038
0.3907765
0.3598825
0.3615085
0.3636679
0.3657161
0.3694771
0.3753737
0.3904487
0.3598733
0.3614981
0.3636549
0.3664687
0.3693222
0.3753278
0.3901561
0.359864
0.3614872
0.3636368
0.3656828
0.3692346
0.37529
0.3899145
0.3598552
0.3614758
0.3636237
0.3656541
0.3692035
0.3752545
0.389681
0.3598434
0.3614623
0.3636042
0.3656311
0.3691717
0.3752116
0.3894922
0.3598087
0.3614463
0.3635935
0.3656077
0.3691279
0.3748675
0.3893125
0.359782
0.3610001
0.3629883
0.3655854
0.369088
0.3747367
0.3891701
0.3597789
0.36099
0.3629668
0.3655552
0.3690512
0.3746847
0.3890604
0.3597193
0.3609467
0.3629467
0.3655278
0.3690128
0.3744519
0.388946
0.3596777
0.3608723
0.3629245
0.3654985
0.3689711
0.3741809
0.3888462
0.3596587
0.3608405
0.3628893
0.3654674
0.3689276
0.3741156
0.3887926
0.3596376
0.3608093
0.3628109
0.3654352
0.3688849
0.3740166
0.3872271
0.3596191
0.3608099
0.3627587
0.3654125
0.3688804
0.3740096
0.3873436
0.3596256
0.3608237
0.3626594
0.3654669
0.3689704
0.3740489
0.3835859
0.3596417
0.3608497
0.3627106
0.3654104
0.3690259
0.3739978
0.3851215
0.3596356
0.3608718
0.3627338
0.3654092
0.369049
0.3741776
0.3846466
0.3596395
0.3608965
0.3627749
0.3653964
0.3692224
0.3747731
0.3831549
0.3595682
0.3609745
0.3629163
0.365736
0.3697177
0.3753459
0.3833955
0.3595973
0.3609234
0.3632019
0.3663117
0.3699659
0.3749896
0.3844218
0.3593734
0.3607172
0.363369
0.3663867
0.3698537
0.3739896
0.383145
0.3591594
0.3607105
0.3630579
0.3659325
0.3694014
0.3733209
0.3821773
0.3591295
0.3605775
0.3630172
0.3656416
0.3687556
0.3730608
0.3816477
0.3585609
0.3602787
0.3625048
0.3655342
0.3681763
0.3726616
0.3817166
0.3579372
0.3598809
0.3624513
0.3647038
0.3679181
0.3713907
0.3808571
0.3570317
0.3591143
0.361714
0.3644367
0.3665886
0.370904
0.3779705
0.3563707
0.3584254
0.3612726
0.3634908
0.3663878
0.3694185
0.3759595
0.3553593
0.3576496
0.3604019
0.362925
0.3655352
0.3693879
0.3747274
0.3546547
0.3566251
0.3597349
0.3623068
0.3650502
0.3687215
0.373882
0.354025
0.3558995
0.3586468
0.3614583
0.3646186
0.3682047
0.3728246
0.3533595
0.3551138
0.3577008
0.3601935
0.3632891
0.3672456
0.3723229
0.3529455
0.3544574
0.3572831
0.3595909
0.3623581
0.3661042
0.3709922
0.3528171
0.3545722
0.3570099
0.3592508
0.3614973
0.3645388
0.3695566
0.3526018
0.3544965
0.356844
0.3590393
0.3609928
0.3629105
0.366809
0.3523653
0.3543528
0.3567114
0.3586484
0.3603265
0.3622543
0.3523039
0.3542335
0.3561543
0.3582136
0.3598685
0.3616973
0.3524261
0.3542432
0.3564743
0.3584861
0.3603234
0.3625627
0.3525427
0.354192
0.3565183
0.3585384
0.3609097
0.3633459
0.367569
0.3527851
0.3541467
0.3564905
0.3591059
0.3616166
0.3652763
0.3716551
0.3531779
0.3544517
0.3570819
0.3597408
0.362722
0.3663622
0.3714302
0.3537733
0.3551131
0.3580208
0.3603229
0.3635002
0.3671372
0.3717929
0.3543267
0.3554014
0.3587817
0.3613774
0.3639576
0.3676541
0.3727048
0.3550657
0.3564164
0.3594283
0.3617777
0.364737
0.3680493
0.3732453
0.3560645
0.3572645
0.3600043
0.3626608
0.3651469
0.3685122
0.3757902
0.3567406
0.3580188
0.3609268
0.3630154
0.3659503
0.3692509
0.3769158
0.3574997
0.3588866
0.361364
0.3639773
0.3664159
0.3704951
0.3788737
0.3581764
0.3594556
0.362045
0.3643561
0.3675109
0.3713328
0.3803491
0.3585574
0.3600663
0.3624923
0.3651424
0.368049
0.3722778
0.380227
0.3588408
0.3603263
0.3626156
0.3653873
0.3687264
0.3728186
0.3813518
0.3590482
0.3604917
0.3627796
0.3657421
0.3692813
0.3733082
0.3815234
0.3593999
0.3607704
0.3629574
0.3660072
0.3695918
0.373989
0.3831957
0.3595573
0.3609343
0.36282
0.3656977
0.3694412
0.3748121
0.3838115
0.3596094
0.3609152
0.3627872
0.3653956
0.3694034
0.3747958
0.3826567
0.3596148
0.3608697
0.3627026
0.3652607
0.3691461
0.3744274
0.3828529
0.3596018
0.3608345
0.3626605
0.3654423
0.3689651
0.373964
0.3845072
0.3595929
0.3608168
0.3626069
0.3653349
0.3688949
0.3739333
0.3850625
0.3596104
0.3608188
0.362639
0.3653716
0.3688282
0.3739221
0.387203
0.3596345
0.3608126
0.362777
0.3654113
0.3688516
0.373964
0.3874129
0.3596555
0.3608639
0.3628673
0.365446
0.3688978
0.3740682
0.3877885
0.3596746
0.3608962
0.3629016
0.3654786
0.3689439
0.3741353
0.3887652
0.3597165
0.3609171
0.3629328
0.3655098
0.3689877
0.374231
0.3888358
0.3597759
0.3609969
0.3629546
0.3655391
0.3690292
0.3746627
0.3889652
0.3597801
0.3610369
0.3629757
0.3655647
0.3690675
0.3747083
0.3890795
0.3598073
0.3614451
0.3635915
0.3656014
0.3691048
0.3747624
0.3891995
0.3598424
0.3614612
0.363603
0.3656277
0.3691513
0.3750765
0.3893702
0.3598543
0.3614748
0.3636211
0.3656485
0.3691871
0.375235
0.3895612
0.3598633
0.3614865
0.3636377
0.3656684
0.3692189
0.3752721
0.3897684
0.3598728
0.3614976
0.3636535
0.3656876
0.3692523
0.3753071
0.3900021
0.359882
0.361508
0.3636683
0.3657063
0.3694229
0.375353
0.3902778
0.3598891
0.3615178
0.3636823
0.3657241
0.3694921
0.3753894
0.3905589
0.3598958
0.3615271
0.3636956
0.3657408
0.3695135
0.3754189
0.3909097
0.3599021
0.3615358
0.3637081
0.365757
0.369534
0.3754472
0.3912852
0.3599082
0.361544
0.3637201
0.3657722
0.3695532
0.3754742
0.3917304
0.3599137
0.3615519
0.3637313
0.3657867
0.3695715
0.3755
0.3922698
0.359919
0.3615596
0.3637424
0.3658046
0.3696609
0.3755249
0.3928129
0.3599241
0.3615673
0.3637528
0.3658205
0.3697696
0.3755487
0.3933657
0.359929
0.3615745
0.3637627
0.3658333
0.3697821
0.3755712
0.3939373
0.3599336
0.3615815
0.3637722
0.3658457
0.3697941
0.3755925
0.3947399
0.3599381
0.3615881
0.3637815
0.3658575
0.3698052
0.3756123
0.3953224
0.3599425
0.3615945
0.3637903
0.365869
0.369816
0.3756662
0.3959782
0.3599469
0.361601
0.3637989
0.3658801
0.3698488
0.3757543
0.3966191
0.3599515
0.3616075
0.3638102
0.3659144
0.3699046
0.3758427
0.397231
0.3599565
0.3616162
0.3638536
0.3659725
0.3699609
0.3759313
0.3977178
0.3599633
0.361651
0.3639001
0.3660312
0.3700174
0.3760203
0.3981383
0.3599909
0.361689
0.363949
0.3660904
0.3700718
0.3761135
0.3985236
0.3600214
0.3617276
0.3639986
0.3661468
0.3700511
0.3762119
0.3988509
0.360053
0.361767
0.3640487
0.366207
0.3701204
0.3763115
0.3991882
0.3600857
0.361807
0.3640992
0.3662673
0.3701924
0.3764123
0.3995328
0.3601198
0.3618473
0.3641499
0.366328
0.3702648
0.3765136
0.3999115
0.360154
0.3618874
0.3642006
0.3663882
0.3703375
0.3766156
0.4003477
0.3601879
0.361928
0.3642513
0.3664482
0.3704103
0.3767196
0.4001041
3.840103
4.437082
4.355178
4.354962
4.354961
4.354961
4.354961
4.354961
4.354961
4.354961
4.354961
4.354961
4.354961
4.354961
4.354961
4.354961
4.354961
4.354961
4.118595
4.358878
4.354971
4.354967
4.354967
4.354967
4.354967
4.354967
4.354967
4.354967
4.354967
4.354967
4.354967
4.354967
4.354967
4.354967
4.354967
4.354967
4.092615
4.364393
4.354972
4.354967
4.354967
4.354967
4.354967
4.354967
4.354967
4.354967
4.354967
4.354967
4.354967
4.354967
4.354967
4.354967
4.354967
4.354967
4.076255
4.364096
4.354972
4.354967
4.354967
4.354967
4.354967
4.354967
4.354967
4.354967
4.354967
4.354967
4.354967
4.354967
4.354967
4.354967
4.354967
4.354967
4.05831
4.363931
4.354972
4.354967
4.354967
4.354967
4.354967
4.354967
4.354967
4.354967
4.354967
4.354967
4.354967
4.354967
4.354967
4.354967
4.354967
4.354967
4.037808
4.364182
4.354972
4.354967
4.354967
4.354967
4.354967
4.354967
4.354967
4.354967
4.354967
4.354967
4.354967
4.354967
4.354967
4.354967
4.354967
4.354967
4.014981
4.364746
4.354973
4.354967
4.354967
4.354967
4.354967
4.354967
4.354967
4.354967
4.354967
4.354967
4.354967
4.354967
4.354967
4.354967
4.354967
4.354967
3.989061
4.365818
4.354973
4.354967
4.354967
4.354967
4.354967
4.354967
4.354967
4.354967
4.354967
4.354967
4.354967
4.354967
4.354967
4.354967
4.354967
4.354967
3.94795
4.367012
4.354973
4.354967
4.354967
4.354967
4.354967
4.354967
4.354967
4.354967
4.354967
4.354967
4.354967
4.354967
4.354967
4.354967
4.354967
4.354967
3.902705
4.367434
4.354974
4.354967
4.354967
4.354967
4.354967
4.354967
4.354967
4.354967
4.354967
4.354967
4.354967
4.354967
4.354967
4.354967
4.354967
4.354967
3.85792
4.36823
4.354974
4.354967
4.354967
4.354967
4.354967
4.354967
4.354967
4.354967
4.354967
4.354967
4.354967
4.354967
4.354967
4.354967
4.354967
4.354967
3.809108
4.368549
4.354974
4.354967
4.354967
4.354967
4.354967
4.354967
4.354967
4.354967
4.354967
4.354967
4.354967
4.354967
4.354967
4.354967
4.354967
4.354967
3.764269
4.369121
4.354975
4.354967
4.354967
4.354967
4.354967
4.354967
4.354967
4.354967
4.354967
4.354967
4.354967
4.354967
4.354967
4.354967
4.354967
4.354967
3.703999
4.370071
4.354976
4.354967
4.354967
4.354967
4.354967
4.354967
4.354967
4.354967
4.354967
4.354967
4.354967
4.354967
4.354967
4.354967
4.354967
4.354967
3.489785
4.370577
4.354979
4.354967
4.354967
4.354967
4.354967
4.354967
4.354967
4.354967
4.354967
4.354967
4.354967
4.354967
4.354967
4.354967
4.354967
4.354967
3.424325
4.382335
4.35522
4.354967
4.354967
4.354967
4.354967
4.354967
4.354967
4.354967
4.354967
4.354967
4.354967
4.354967
4.354967
4.354967
4.354967
4.354967
3.357777
4.370682
4.355019
4.355033
4.354967
4.354967
4.354967
4.354967
4.354967
4.354967
4.354967
4.354967
4.354967
4.354967
4.354967
4.354967
4.354967
4.354967
3.282686
4.371603
4.354983
4.354989
4.354982
4.354967
4.354967
4.354967
4.354967
4.354967
4.354967
4.354967
4.354967
4.354967
4.354967
4.354967
4.354967
4.354967
3.20901
4.371297
4.354978
4.354972
4.354981
4.354968
4.354967
4.354967
4.354967
4.354967
4.354967
4.354967
4.354967
4.354967
4.354967
4.354967
4.354967
4.354967
3.13586
4.371465
4.354978
4.354967
4.354969
4.354972
4.354967
4.354967
4.354967
4.354967
4.354967
4.354967
4.354967
4.354967
4.354967
4.354967
4.354967
4.354967
3.064243
4.371135
4.354977
4.354967
4.354967
4.354968
4.354968
4.354967
4.354967
4.354967
4.354967
4.354967
4.354967
4.354967
4.354967
4.354967
4.354967
4.354967
2.997463
4.371388
4.354977
4.354967
4.354967
4.354967
4.354967
4.354967
4.354967
4.354967
4.354967
4.354967
4.354967
4.354967
4.354967
4.354967
4.354967
4.354967
2.933759
4.370823
4.354976
4.354967
4.354967
4.354967
4.354967
4.354967
4.354967
4.354967
4.354967
4.354967
4.354967
4.354967
4.354967
4.354967
4.354967
4.354967
2.869916
4.370809
4.354976
4.354967
4.354967
4.354967
4.354967
4.354967
4.354967
4.354967
4.354967
4.354967
4.354967
4.354967
4.354967
4.354967
4.354967
4.354967
2.807148
4.370845
4.354976
4.354967
4.354967
4.354967
4.354967
4.354967
4.354967
4.354967
4.354967
4.354967
4.354967
4.354967
4.354967
4.354967
4.354967
4.354967
2.744731
4.370797
4.354976
4.354967
4.354968
4.354967
4.354967
4.354967
4.354967
4.354967
4.354967
4.354967
4.354967
4.354967
4.354968
4.354967
4.354967
4.354967
2.680235
4.370484
4.354976
4.354967
4.354969
4.354967
4.354967
4.354967
4.354967
4.354967
4.354967
4.354967
4.354967
4.354967
4.354967
4.354967
4.354967
4.354967
2.61646
4.370342
4.354976
4.354967
4.35497
4.354967
4.354967
4.354967
4.354967
4.354967
4.354967
4.354967
4.354967
4.354967
4.354967
4.354967
4.354967
4.354967
2.553276
4.370301
4.354976
4.354968
4.354975
4.354967
4.354967
4.354967
4.354967
4.354967
4.354967
4.354967
4.354967
4.354967
4.354967
4.354967
4.354967
4.354967
2.488868
4.369725
4.354978
4.355043
4.355072
4.354968
4.354968
4.354968
4.354968
4.354967
4.354967
4.354967
4.354967
4.354967
4.354967
4.354967
4.354967
4.354967
2.42306
4.369065
4.355013
4.3608
4.3604
4.355009
4.35497
4.355002
4.354986
4.354967
4.354967
4.354967
4.354967
4.354967
4.354967
4.354967
4.354967
4.354967
2.359021
4.36912
4.355038
4.361001
4.357018
4.35504
4.354974
4.355372
4.355317
4.35497
4.354967
4.354967
4.354967
4.354968
4.354967
4.354967
4.354967
4.354967
2.294822
4.376103
4.355111
4.359399
4.356351
4.354986
4.354981
4.354996
4.354965
4.354967
4.354967
4.354967
4.354968
4.354971
4.354967
4.354967
4.354967
4.354968
2.220947
4.377858
4.355726
4.369873
4.374777
4.355512
4.354993
4.354995
4.354972
4.354969
4.354967
4.354967
4.354967
4.354967
4.354967
4.354967
4.354969
4.354967
2.038047
4.3592
4.357985
4.384047
4.368375
4.381498
4.355018
4.355039
4.355152
4.355102
4.354967
4.354967
4.354971
4.354967
4.354967
4.354967
4.354973
4.354967
1.963941
4.393631
4.362258
4.354839
4.363042
4.355277
4.355287
4.355975
4.35615
4.355012
4.354967
4.354967
4.354971
4.354967
4.354967
4.354968
4.354972
4.354967
1.847448
4.500563
4.363891
4.359967
4.357353
4.355544
4.355522
4.355151
4.355119
4.355026
4.354971
4.354959
4.355031
4.354967
4.354967
4.354972
4.354966
4.354967
1.007372
4.455152
4.430152
4.396514
4.361917
4.357108
4.356899
4.3568
4.356649
4.356242
4.355958
4.355498
4.355127
4.354954
4.354956
4.354998
4.354968
4.354967
0.2881072
4.508637
4.415519
4.382304
4.36127
4.358508
4.357864
4.358323
4.358115
4.357493
4.357541
4.357249
4.356716
4.356
4.355167
4.355009
4.354961
4.354967
0.7375306
4.640664
4.474389
4.393228
4.357484
4.359459
4.358521
4.357834
4.359251
4.358619
4.358892
4.359458
4.358371
4.357985
4.35754
4.355974
4.35502
4.35494
0.7674096
4.190468
4.509764
4.358437
4.358278
4.360699
4.358936
4.358551
4.360236
4.359674
4.360173
4.361033
4.359901
4.359683
4.358983
4.358114
4.356986
4.355431
0.2101786
4.252551
4.423999
4.359275
4.358551
4.365461
4.359332
4.359068
4.361024
4.360616
4.361421
4.361217
4.361354
4.361735
4.360326
4.359906
4.358936
4.357716
0.425069
4.373377
4.449388
4.358734
4.358854
4.359063
4.359405
4.359491
4.36158
4.36141
4.362881
4.361963
4.362674
4.363057
4.362066
4.361594
4.360877
4.359202
0.4798004
4.438415
4.422218
4.358543
4.366901
4.35789
4.359471
4.359758
4.361878
4.36208
4.364215
4.363193
4.364405
4.363808
4.363548
4.363444
4.361922
4.361396
0.4639865
4.428975
4.505045
4.383435
4.361674
4.359451
4.35952
4.359866
4.361803
4.363289
4.364103
4.364131
4.366373
4.364377
4.365158
4.36411
4.363974
4.362837
0.4515896
4.351856
4.508278
4.398091
4.384368
4.36156
4.359605
4.359882
4.361495
4.365145
4.363438
4.366009
4.36737
4.36583
4.366098
4.365961
4.364721
4.364414
0.4105362
4.164584
4.654526
4.44067
4.371664
4.366616
4.359207
4.360551
4.361267
4.365587
4.364956
4.36465
4.367669
4.36825
4.368857
4.36644
4.366142
4.365448
0.4515781
3.198006
4.607487
4.398286
4.391567
4.372009
4.35805
4.360234
4.361855
4.365281
4.364471
4.365455
4.369626
4.371634
4.368414
4.367609
4.36771
4.366445
0.3809494
2.104396
4.452889
4.54826
4.498358
4.358621
4.358657
4.362446
4.377842
4.365791
4.366281
4.366608
4.373795
4.370454
4.369147
4.367364
4.367687
4.36768
0.4030868
1.359366
4.047157
4.568132
4.440707
4.458426
4.383873
4.364659
4.376829
4.369489
4.371322
4.368565
4.367314
4.367922
0.3855751
0.4303084
4.414945
4.390362
4.371202
4.378994
4.368285
4.367178
4.367904
4.367202
0.3832269
4.4371
4.371992
4.369409
4.36916
4.367347
4.367583
4.368336
4.381038
4.368605
4.374792
4.369033
4.368866
4.368211
4.37665
4.367284
4.366411
4.367448
4.367632
4.444311
4.367323
4.367343
4.367304
4.367553
4.376211
4.364657
4.365416
4.366466
4.367097
4.3626
4.363215
4.36494
4.365954
4.366615
4.371965
4.365305
4.367481
4.366086
4.366638
4.400045
4.365249
4.365033
4.366244
4.365497
4.418298
4.374118
4.366303
4.365705
4.366399
4.36525
0.3859051
4.384249
4.369407
4.365218
4.36352
4.365123
4.365097
0.3864403
0.7187385
4.410092
4.366306
4.364361
4.363289
4.364539
4.363254
4.363743
0.3989866
1.270663
3.612908
4.439968
4.421711
4.364287
4.37211
4.371775
4.362453
4.363006
4.364023
4.363748
0.393029
1.60722
4.467336
4.556839
4.421054
4.358853
4.359566
4.370475
4.435198
4.370001
4.357508
4.36122
4.361127
4.36521
4.363951
4.364535
4.362159
4.36282
0.4939824
2.906906
4.68087
4.460308
4.366179
4.364419
4.352496
4.354609
4.358428
4.364478
4.358021
4.357815
4.362226
4.361434
4.362637
4.360694
4.362992
4.361366
0.4986019
3.801002
4.545373
4.409021
4.384677
4.377259
4.351973
4.354191
4.354955
4.355677
4.357698
4.356845
4.361405
4.359801
4.360634
4.362108
4.360329
4.361753
0.3999296
4.200583
4.657952
4.42584
4.350928
4.353967
4.352368
4.352364
4.353966
4.35568
4.356185
4.358955
4.357998
4.359827
4.35975
4.359288
4.361233
4.359594
0.4238927
4.427664
4.433974
4.497741
4.385586
4.350519
4.35164
4.352008
4.353789
4.356738
4.358177
4.357956
4.358944
4.358287
4.358204
4.36025
4.358529
4.35975
0.4101811
4.367973
4.38898
4.343399
4.352856
4.350294
4.351557
4.351873
4.354048
4.354438
4.358166
4.356106
4.358598
4.357174
4.359851
4.358016
4.359054
4.357881
0.4063042
4.401254
4.435677
4.352021
4.362726
4.350038
4.351795
4.351861
4.354173
4.35413
4.355348
4.355555
4.357122
4.35668
4.357153
4.356964
4.357366
4.356886
0.3199162
4.381044
4.467132
4.351557
4.350688
4.368562
4.352283
4.352109
4.35434
4.353937
4.355182
4.355206
4.356115
4.357786
4.356561
4.358215
4.356481
4.356752
0.03811032
4.183538
4.55778
4.370793
4.353395
4.35929
4.352923
4.352536
4.354583
4.35408
4.356061
4.355068
4.355818
4.35625
4.356102
4.356006
4.355814
4.355408
0.6291202
4.171409
4.519966
4.35486
4.354665
4.356317
4.353756
4.353176
4.354852
4.354324
4.356224
4.355835
4.355587
4.355838
4.356239
4.355579
4.355196
4.354745
0.9366685
4.619527
4.429773
4.361088
4.355173
4.355794
4.354589
4.354436
4.355169
4.354684
4.354877
4.355439
4.355451
4.355519
4.355372
4.354854
4.354841
4.354951
0.2850263
4.686983
4.435017
4.361506
4.357092
4.355499
4.355149
4.355431
4.35542
4.35511
4.355246
4.35512
4.355151
4.354932
4.354829
4.354954
4.354962
4.354967
1.518113
4.507872
4.401409
4.368951
4.357547
4.355471
4.355489
4.355392
4.355297
4.355207
4.355049
4.354927
4.354918
4.354941
4.354961
4.35497
4.354968
4.354967
1.758687
4.370029
4.357219
4.357415
4.356146
4.355062
4.355116
4.35508
4.355324
4.354956
4.354954
4.354963
4.354968
4.354966
4.354967
4.354968
4.354984
4.354967
1.897819
4.41333
4.357889
4.356373
4.37764
4.357111
4.355067
4.355591
4.355172
4.355189
4.354967
4.354967
4.354968
4.354967
4.354967
4.354967
4.354984
4.354967
2.014539
4.555203
4.358132
4.405301
4.366418
4.369255
4.354998
4.354977
4.355039
4.354996
4.354967
4.354967
4.354967
4.354967
4.354967
4.354967
4.354967
4.354967
2.238065
4.461222
4.358133
4.373373
4.375646
4.355047
4.354978
4.354984
4.354967
4.354967
4.354967
4.354967
4.354967
4.354968
4.354967
4.354967
4.354967
4.354968
2.30931
4.382385
4.355151
4.358785
4.355267
4.354972
4.354971
4.355041
4.355041
4.354968
4.354967
4.354967
4.354967
4.354967
4.354967
4.354967
4.354967
4.354967
2.379012
4.388616
4.355015
4.366641
4.360796
4.355035
4.354969
4.355365
4.355206
4.354972
4.354967
4.354967
4.354967
4.354967
4.354967
4.354967
4.354967
4.354967
2.448182
4.388145
4.355029
4.357848
4.358801
4.354989
4.354968
4.354972
4.354969
4.354967
4.354967
4.354967
4.354967
4.354967
4.354967
4.354967
4.354967
4.354967
2.51685
4.386212
4.354993
4.354992
4.354993
4.354967
4.354967
4.354967
4.354967
4.354967
4.354967
4.354967
4.354967
4.354967
4.354967
4.354967
4.354967
4.354967
2.582601
4.384675
4.354988
4.354967
4.354976
4.354967
4.354967
4.354967
4.354967
4.354967
4.354967
4.354967
4.354967
4.354967
4.354967
4.354967
4.354967
4.354967
2.649908
4.383186
4.354987
4.354967
4.354972
4.354967
4.354967
4.354967
4.354967
4.354967
4.354967
4.354967
4.354967
4.354967
4.354967
4.354967
4.354967
4.354967
2.715762
4.381937
4.354986
4.354967
4.354969
4.354967
4.354967
4.354967
4.354967
4.354967
4.354967
4.354967
4.354967
4.354967
4.354968
4.354967
4.354967
4.354967
2.779667
4.38014
4.354984
4.354967
4.354968
4.354967
4.354967
4.354967
4.354967
4.354967
4.354967
4.354967
4.354967
4.354967
4.354967
4.354967
4.354967
4.354967
2.843014
4.379691
4.354984
4.354967
4.354968
4.354967
4.354967
4.354967
4.354967
4.354967
4.354967
4.354967
4.354967
4.354967
4.354967
4.354967
4.354967
4.354967
2.908473
4.378009
4.354983
4.354967
4.354967
4.354967
4.354967
4.354967
4.354967
4.354967
4.354967
4.354967
4.354967
4.354967
4.354967
4.354967
4.354967
4.354967
2.971884
4.377528
4.354983
4.354967
4.354967
4.354967
4.354967
4.354967
4.354967
4.354967
4.354967
4.354967
4.354967
4.354967
4.354967
4.354967
4.354967
4.354967
3.037437
4.376924
4.354983
4.354967
4.354967
4.354967
4.354968
4.354967
4.354967
4.354967
4.354967
4.354967
4.354967
4.354967
4.354967
4.354967
4.354967
4.354967
3.103093
4.376758
4.354983
4.354967
4.354967
4.354976
4.354968
4.354967
4.354967
4.354967
4.354967
4.354967
4.354967
4.354967
4.354967
4.354967
4.354967
4.354967
3.173238
4.375762
4.354982
4.354969
4.355001
4.354984