/*--------------------------------*- C++ -*----------------------------------*\
| =========                 |                                                 |
| \\      /  F ield         | OpenFOAM: The Open Source CFD Toolbox           |
|  \\    /   O peration     | Version:  2206                                  |
|   \\  /    A nd           | Website:  www.openfoam.com                      |
|    \\/     M anipulation  |                                                 |
\*---------------------------------------------------------------------------*/
FoamFile
{
    version     2.0;
    format      ascii;
    arch        "LSB;label=32;scalar=64";
    class       volScalarField;
    location    "1.8";
    object      omega.b;
}
// * * * * * * * * * * * * * * * * * * * * * * * * * * * * * * * * * * * * * //

dimensions      [0 0 -1 0 0 0 0];

internalField   nonuniform List<scalar> 
13078
(
6.495683
0.4474381
0.3557253
0.3552295
0.3560776
0.3570848
0.3582531
6.57947
0.4336462
0.3550658
0.355151
0.3560429
0.3570585
0.3582269
6.585492
0.4302968
0.3549519
0.3550803
0.3559957
0.3570234
0.3581955
6.591679
0.428942
0.354886
0.3550259
0.3559517
0.3569873
0.3581624
6.598133
0.4284773
0.3548487
0.3549997
0.3559158
0.3569534
0.3581299
6.604802
0.4282519
0.3548309
0.354984
0.3559008
0.3569244
0.3580989
6.611848
0.4281935
0.3548292
0.3549719
0.3558907
0.3569142
0.3580715
6.619131
0.4282277
0.3548342
0.3549653
0.3558847
0.3569074
0.3580634
6.626655
0.4282731
0.3548341
0.3549634
0.3558812
0.3569026
0.3580577
6.634488
0.428362
0.3548359
0.3549627
0.355879
0.356899
0.3580532
6.642682
0.42848
0.3548382
0.3549624
0.3558773
0.3568962
0.3580492
6.651186
0.42862
0.3548404
0.3549622
0.355876
0.3568937
0.3580457
6.660084
0.428778
0.3548428
0.3549618
0.3558749
0.3568915
0.3580424
6.669375
0.4289525
0.354845
0.3549611
0.3558732
0.3568892
0.3580391
6.679072
0.4291416
0.3548477
0.3549557
0.3558646
0.3568861
0.3580357
6.689206
0.4293448
0.3548504
0.3549487
0.3558577
0.3568833
0.3580322
6.69983
0.4295613
0.3548528
0.354947
0.3558554
0.3568806
0.3580286
6.710875
0.4297912
0.3548553
0.3549456
0.3558533
0.3568778
0.3580248
6.722538
0.4300367
0.3548578
0.3549441
0.3558507
0.3568741
0.3580208
6.734686
0.4302967
0.3548604
0.3549418
0.3558408
0.3568598
0.3580155
6.747501
0.4305744
0.3548633
0.3549393
0.3558286
0.3568481
0.3580102
6.760849
0.4308699
0.3548665
0.3549374
0.3558246
0.3568436
0.3580053
6.77492
0.4311859
0.3548699
0.3549352
0.3558212
0.3568387
0.357999
6.789678
0.431525
0.3548737
0.3549329
0.3558166
0.3568232
0.3579772
6.805169
0.4318903
0.3548781
0.3549304
0.3558118
0.3568041
0.3579591
6.821431
0.4322862
0.354883
0.3549278
0.3558075
0.3567969
0.3579508
6.838694
0.4327113
0.3548887
0.3549251
0.3558029
0.3567903
0.3579427
6.860783
0.4332166
0.3548965
0.3549224
0.3557979
0.3567818
0.3579182
6.889513
0.4336946
0.3549036
0.3549195
0.3557926
0.3567729
0.3578863
6.964902
0.4348715
0.3549263
0.3549167
0.3557871
0.3567651
0.3578749
7.077899
0.4362483
0.3549262
0.354913
0.3557811
0.3567563
0.3578602
7.116328
0.4383926
0.3549173
0.3549066
0.3557739
0.3567469
0.3578459
7.153722
0.4411344
0.3549891
0.3549023
0.3557636
0.3567362
0.3578328
7.186843
0.442355
0.3550247
0.3549005
0.3557516
0.3567211
0.3578163
7.221339
0.4436494
0.3550497
0.3548864
0.3557572
0.3567019
0.3577973
7.257503
0.4450408
0.3550865
0.3548513
0.3557293
0.3566998
0.3577899
7.295303
0.4465203
0.3551331
0.3548532
0.35568
0.356693
0.3577866
7.335035
0.4481766
0.3551802
0.354843
0.3556573
0.3566368
0.3577501
7.38517
0.4501127
0.3552283
0.3548156
0.3555965
0.3565271
0.3577132
7.498027
0.4532441
0.3552784
0.3547368
0.3555323
0.3564628
0.3576659
7.673727
0.4590266
0.3552226
0.3546307
0.3554042
0.3563272
0.3574628
7.748898
0.4646625
0.3551959
0.3543937
0.3551588
0.3561257
0.3572671
7.810551
0.4674269
0.3549929
0.3540642
0.3548938
0.3558257
0.3570195
7.878367
0.4690507
0.354644
0.353722
0.3545938
0.3555494
0.3567316
7.986785
0.4698916
0.3543187
0.3533894
0.3541457
0.3552303
0.3564254
8.166383
0.4714826
0.3539642
0.3529813
0.3537017
0.3546512
0.3559023
8.255065
0.4737499
0.3536826
0.3525981
0.3531245
0.3539826
0.3550516
8.326452
0.4749214
0.3532278
0.352112
0.352519
0.3533763
0.3541975
8.392446
0.4768143
0.3527787
0.3515163
0.3519158
0.3526436
0.3534388
8.454432
0.4789899
0.3523654
0.350983
0.3513379
0.3519239
0.3527906
8.544945
0.4833534
0.3520888
0.3505491
0.3508435
0.3513311
0.352077
8.785921
0.4901706
0.3518476
0.3502206
0.3505025
0.3509561
0.3514927
8.872553
0.4927162
0.3515491
0.3498067
0.35017
0.350712
0.3512377
8.909614
0.4940283
0.3512631
0.3495096
0.3499487
0.3505608
0.3512012
8.927712
0.4947126
0.3510239
0.3492719
0.3497451
0.3503564
0.3509796
8.9302
0.4943867
0.3508043
0.3490466
0.3495203
0.3501094
0.3507746
8.930099
0.4931561
0.3507042
0.3490026
0.3495026
0.3500763
0.3506924
8.927582
0.4913948
0.3508349
0.3492103
0.3496779
0.3502523
0.350864
8.909478
0.488914
0.3510092
0.3494412
0.3498519
0.350412
0.3509946
8.872326
0.4860938
0.351219
0.3497172
0.3500536
0.3505654
0.3510814
8.785645
0.4825438
0.3514905
0.3501117
0.3504183
0.350877
0.3513872
8.544682
0.475247
0.35176
0.3505096
0.350792
0.3512464
0.3519389
8.454277
0.4707714
0.3520563
0.3509085
0.3512346
0.3517632
0.352554
8.392351
0.46872
0.3524799
0.3513901
0.3517464
0.3524314
0.353166
8.326444
0.467627
0.3529443
0.3519312
0.3523645
0.353185
0.3539415
8.255065
0.4682402
0.3534525
0.3524614
0.3529866
0.3538086
0.3548241
8.166384
0.4677736
0.3538279
0.3528871
0.3535732
0.354455
0.3555657
7.986785
0.466788
0.3542293
0.3533437
0.3540227
0.3549932
0.3560589
7.878367
0.4659715
0.3545574
0.3537071
0.3544885
0.3553224
0.3564841
7.810551
0.4642458
0.3548944
0.354039
0.3548158
0.3556765
0.3567752
7.749112
0.4613737
0.3551109
0.3543704
0.3550928
0.3560423
0.3570834
7.67813
0.456495
0.3551659
0.3546188
0.3553633
0.3562627
0.3573552
7.535476
0.4518766
0.3551938
0.354766
0.3555379
0.3564404
0.3576039
7.439017
0.4492427
0.3551571
0.3548211
0.3556239
0.3565464
0.3577216
7.388643
0.4476268
0.3551151
0.3548361
0.3556554
0.3566441
0.3577525
7.344499
0.4457317
0.3550669
0.3548376
0.3556875
0.3566883
0.3577658
7.300797
0.4441127
0.3550388
0.3548419
0.3557291
0.356679
0.357771
7.237693
0.4427035
0.3550178
0.3548805
0.3557456
0.3566979
0.3577935
7.190731
0.4414618
0.3549973
0.3548956
0.3557492
0.3567188
0.357814
7.154756
0.4404445
0.3549677
0.3548984
0.3557609
0.3567332
0.3578298
7.116393
0.4378652
0.3549016
0.3549043
0.3557713
0.3567441
0.3578433
7.077899
0.4358548
0.3549149
0.3549107
0.3557789
0.3567539
0.357858
6.964902
0.4346002
0.3549178
0.3549148
0.3557851
0.3567633
0.3578729
6.889513
0.4334822
0.3548973
0.354918
0.355791
0.3567714
0.3578848
6.860783
0.4330603
0.3548918
0.354921
0.3557966
0.3567805
0.3579166
6.838694
0.4325954
0.3548852
0.354924
0.3558018
0.356789
0.3579414
6.821431
0.4322006
0.3548804
0.3549269
0.3558065
0.3567959
0.3579498
6.805169
0.431827
0.3548762
0.3549297
0.355811
0.3568033
0.3579583
6.789678
0.431478
0.3548724
0.3549322
0.3558159
0.3568226
0.3579765
6.77492
0.4311506
0.3548689
0.3549347
0.3558206
0.356838
0.3579985
6.760849
0.4308432
0.3548657
0.354937
0.3558241
0.3568431
0.3580048
6.747501
0.4305538
0.3548627
0.3549391
0.3558283
0.3568478
0.3580098
6.734686
0.4302803
0.35486
0.3549417
0.3558406
0.3568597
0.3580154
6.722538
0.4300229
0.3548576
0.354944
0.3558506
0.3568741
0.3580208
6.710875
0.4297788
0.3548552
0.3549456
0.3558532
0.3568778
0.3580248
6.69983
0.4295492
0.3548528
0.3549471
0.3558555
0.3568805
0.3580285
6.689206
0.4293319
0.3548505
0.3549489
0.3558578
0.3568832
0.3580322
6.679072
0.4291268
0.3548479
0.354956
0.3558648
0.3568861
0.3580357
6.669375
0.4289344
0.3548454
0.3549615
0.3558735
0.3568892
0.358039
6.660084
0.428755
0.3548432
0.3549624
0.3558751
0.3568915
0.3580422
6.651186
0.4285898
0.3548409
0.3549628
0.3558763
0.3568935
0.3580453
6.642682
0.4284394
0.3548387
0.3549631
0.3558774
0.3568957
0.3580484
6.634488
0.4283065
0.3548364
0.3549633
0.3558787
0.356898
0.3580518
6.626655
0.4281956
0.3548344
0.3549636
0.3558801
0.3569007
0.3580556
6.619131
0.4281167
0.3548335
0.3549644
0.3558822
0.3569042
0.3580601
6.611848
0.4280313
0.354826
0.3549687
0.3558859
0.356909
0.3580667
6.604802
0.4280107
0.3548226
0.3549765
0.3558922
0.3569165
0.3580922
6.598133
0.4281117
0.3548298
0.3549845
0.3559018
0.3569419
0.3581212
6.591679
0.4283401
0.3548474
0.3549993
0.3559307
0.3569722
0.358152
6.585492
0.4289086
0.3548809
0.3550382
0.3559676
0.3570057
0.3581846
6.57947
0.4297035
0.3549239
0.3550929
0.3560109
0.3570416
0.3582178
6.495683
0.4292183
0.3550113
0.355165
0.3560618
0.3570792
0.3582509
0.3596332
0.3613702
0.36369
0.3659135
0.3698758
0.3761899
0.3931901
0.3596034
0.361332
0.3636397
0.3658545
0.3698028
0.3760866
0.3999581
0.3595708
0.3612929
0.3635914
0.3666199
0.3697379
0.3759846
0.3995273
0.359537
0.3612533
0.3635399
0.3657352
0.3696591
0.3758829
0.3991026
0.3595038
0.3612135
0.3634906
0.3656701
0.3695862
0.3757816
0.398748
0.3594712
0.3611736
0.3634402
0.3656092
0.3695144
0.3756812
0.3984056
0.3594395
0.3611344
0.3633902
0.3655504
0.3694945
0.3755823
0.3980727
0.3594109
0.3610956
0.3633408
0.3654929
0.369476
0.3754846
0.3977459
0.3594031
0.3610601
0.3632938
0.3654344
0.3694189
0.3753954
0.397398
0.3593975
0.3610508
0.36325
0.3653762
0.3693624
0.3753066
0.3969657
0.3593925
0.361044
0.3632385
0.3653198
0.3693063
0.3752184
0.3965045
0.3593877
0.3610372
0.3632296
0.3653075
0.3692498
0.3751302
0.3958805
0.359383
0.3610305
0.3632205
0.3652965
0.3692401
0.3750404
0.3952197
0.3593784
0.3610238
0.3632112
0.3652851
0.3692292
0.3750228
0.3947202
0.3593736
0.3610167
0.3632016
0.3652733
0.3692177
0.3750025
0.3939164
0.3593687
0.3610094
0.3631916
0.3652609
0.3692054
0.3749806
0.3931515
0.3593636
0.3610017
0.3631812
0.3652477
0.3691873
0.3749577
0.3926175
0.3593583
0.360994
0.3631702
0.3652279
0.3690153
0.3749333
0.3920564
0.3593528
0.3609863
0.3631589
0.3652134
0.3689923
0.3749083
0.3915785
0.3593469
0.3609781
0.363147
0.3651984
0.3689734
0.374882
0.3910619
0.3593408
0.3609695
0.3631347
0.3651826
0.3689537
0.3748545
0.3905476
0.3593341
0.3609604
0.3631217
0.3651659
0.3689331
0.3748257
0.3901814
0.3593271
0.3609507
0.363107
0.3651521
0.3689075
0.3747957
0.3898537
0.359318
0.3609404
0.363094
0.3659036
0.3687529
0.3747498
0.3895611
0.3593087
0.3609295
0.3630759
0.3651189
0.3686655
0.3747122
0.3893195
0.3592999
0.3609181
0.3630629
0.3650902
0.3686344
0.3746768
0.389086
0.3592882
0.3609047
0.3630434
0.3650673
0.3686028
0.3746339
0.3888971
0.3592535
0.3608887
0.3630327
0.3650439
0.368559
0.3742904
0.3887174
0.3592269
0.3604432
0.3624284
0.3650217
0.3685192
0.3741598
0.3885749
0.3592237
0.360433
0.362407
0.3649916
0.3684825
0.3741079
0.3884651
0.3591643
0.3603898
0.362387
0.3649643
0.3684442
0.3738756
0.3883506
0.3591228
0.3603156
0.3623648
0.364935
0.3684025
0.373605
0.3882507
0.3591039
0.3602838
0.3623297
0.364904
0.3683591
0.3735398
0.3881966
0.3590828
0.3602527
0.3622515
0.364872
0.3683166
0.3734409
0.3866322
0.3590642
0.3602533
0.3621993
0.3648494
0.3683123
0.3734337
0.3867471
0.3590707
0.3602673
0.3621008
0.3649044
0.3684032
0.3734735
0.3829917
0.359087
0.3602939
0.3621535
0.3648505
0.3684604
0.3734228
0.3845209
0.3590817
0.3603173
0.3621787
0.3648511
0.3684851
0.3736042
0.3840497
0.359087
0.3603439
0.3622217
0.36484
0.3686626
0.3742042
0.3825683
0.3590167
0.3604235
0.3623667
0.3651873
0.3691644
0.3747809
0.3828148
0.3590487
0.360379
0.3626621
0.3657711
0.3694181
0.3744355
0.3838479
0.3588327
0.3601835
0.3628384
0.3658545
0.3693147
0.3734388
0.3825811
0.3586282
0.3601846
0.3625383
0.3654105
0.3688701
0.3727784
0.3816177
0.3586066
0.3600627
0.3625057
0.3651289
0.3682359
0.3725264
0.3810901
0.3580502
0.3597736
0.3620046
0.3650271
0.3676658
0.372136
0.3811597
0.3574343
0.3593846
0.3619563
0.3642103
0.3674079
0.370875
0.3803095
0.3565388
0.3586257
0.3612297
0.3639437
0.3660908
0.3703876
0.3774314
0.3558827
0.3579405
0.3607916
0.3630074
0.3658891
0.3689119
0.3754102
0.3548815
0.357167
0.3599278
0.3624451
0.3650437
0.3688772
0.3741858
0.3541836
0.3561563
0.3592676
0.3618336
0.3645642
0.3682128
0.3733446
0.353563
0.3554343
0.3581806
0.3609907
0.3641337
0.3676967
0.3722955
0.3529047
0.3546582
0.3572429
0.3597258
0.3628072
0.36674
0.3717925
0.3524938
0.3540084
0.3568281
0.3591266
0.3618785
0.3655967
0.3704586
0.3523703
0.3541248
0.3565582
0.3587883
0.361022
0.3640375
0.3690179
0.3521569
0.3540499
0.3563946
0.3585766
0.3605145
0.3624124
0.3663008
0.3519208
0.3539098
0.3562628
0.3581867
0.3598465
0.3617598
0.3518598
0.3537913
0.3557079
0.3577534
0.3593935
0.3612029
0.3519819
0.3538008
0.3560276
0.3580259
0.3598458
0.3620636
0.3520957
0.3537485
0.3560675
0.3580783
0.3604291
0.3628457
0.3670346
0.3523332
0.3536976
0.3560366
0.3586426
0.3611384
0.3647737
0.3711129
0.3527226
0.3539978
0.3566208
0.359275
0.3622405
0.3658573
0.3708864
0.3533113
0.3546554
0.3575587
0.3598565
0.3630216
0.3666301
0.3712598
0.3538592
0.3549403
0.3583205
0.3609078
0.3634742
0.3671463
0.3721723
0.3545952
0.3559507
0.3589611
0.3613068
0.3642496
0.3675379
0.3727043
0.3555856
0.3567905
0.3595349
0.3621825
0.3646561
0.3679974
0.3752328
0.356255
0.3575401
0.360447
0.3625381
0.3654527
0.3687396
0.3763686
0.357004
0.3583972
0.3608785
0.3634854
0.3659207
0.3699773
0.3783274
0.3576703
0.3589587
0.3615492
0.3638584
0.3670023
0.3708175
0.3797921
0.3580423
0.3595577
0.3619853
0.3646336
0.3675344
0.3717514
0.3796783
0.3583149
0.3598082
0.3621025
0.364869
0.3682031
0.3722843
0.3807964
0.3585116
0.3599635
0.3622544
0.3652167
0.368748
0.3727623
0.3809696
0.3588526
0.3602306
0.3624216
0.3654741
0.3690461
0.3734399
0.3826306
0.359005
0.3603845
0.3622738
0.3651533
0.3688913
0.374249
0.3832346
0.359056
0.3603619
0.3622335
0.3648405
0.3688466
0.3742309
0.3820754
0.3590604
0.3603143
0.3621471
0.3647023
0.3685811
0.3738528
0.3822668
0.3590472
0.3602781
0.3621029
0.3648803
0.3683986
0.3733873
0.383914
0.3590382
0.3602602
0.3620481
0.3647727
0.3683271
0.3733572
0.3844664
0.3590557
0.3602621
0.36208
0.3648086
0.3682603
0.3733467
0.3866107
0.3590797
0.360256
0.3622176
0.3648481
0.3682835
0.3733887
0.3868201
0.3591006
0.3603072
0.3623078
0.3648827
0.3683295
0.3734926
0.3871932
0.3591197
0.3603394
0.362342
0.3649152
0.3683755
0.3735595
0.3881694
0.3591615
0.3603603
0.3623731
0.3649463
0.3684191
0.3736551
0.3882402
0.3592208
0.36044
0.3623948
0.3649755
0.3684606
0.374086
0.3883697
0.359225
0.3604799
0.3624159
0.3650011
0.3684987
0.3741315
0.3884843
0.3592521
0.3608875
0.3630308
0.3650377
0.368536
0.3741855
0.3886045
0.3592871
0.3609036
0.3630422
0.365064
0.3685823
0.3744991
0.3887754
0.359299
0.3609171
0.3630602
0.3650846
0.3686181
0.3746573
0.3889666
0.359308
0.3609288
0.3630768
0.3651045
0.3686498
0.3746943
0.3891739
0.3593175
0.3609399
0.3630926
0.3651237
0.3686832
0.3747292
0.3894077
0.3593267
0.3609502
0.3631073
0.3651424
0.3688535
0.374775
0.3896834
0.3593337
0.36096
0.3631213
0.3651601
0.3689226
0.3748113
0.3899645
0.3593404
0.3609693
0.3631345
0.3651768
0.3689439
0.3748408
0.3903153
0.3593467
0.360978
0.363147
0.3651929
0.3689643
0.374869
0.3906908
0.3593528
0.3609862
0.363159
0.3652081
0.3689835
0.3748959
0.391136
0.3593583
0.360994
0.3631703
0.3652226
0.3690018
0.3749217
0.3916754
0.3593636
0.3610018
0.3631813
0.3652404
0.3690911
0.3749465
0.3922185
0.3593687
0.3610094
0.3631916
0.3652563
0.3691996
0.3749702
0.3927714
0.3593736
0.3610166
0.3632016
0.3652691
0.3692121
0.3749928
0.3933435
0.3593782
0.3610236
0.3632111
0.3652815
0.369224
0.375014
0.3941465
0.3593827
0.3610302
0.3632203
0.3652932
0.3692351
0.3750338
0.3947298
0.359387
0.3610366
0.3632291
0.3653047
0.3692459
0.3750875
0.3953869
0.3593915
0.3610431
0.3632377
0.3653158
0.3692786
0.3751756
0.3960294
0.359396
0.3610495
0.363249
0.3653501
0.3693343
0.3752638
0.3966433
0.359401
0.3610582
0.3632923
0.3654081
0.3693905
0.3753522
0.3971322
0.3594078
0.361093
0.3633388
0.3654667
0.369447
0.3754411
0.3975546
0.3594354
0.361131
0.3633876
0.3655258
0.3695013
0.3755341
0.3979428
0.3594658
0.3611695
0.3634371
0.3655821
0.3694806
0.3756325
0.39827
0.3594974
0.3612088
0.3634871
0.3656422
0.3695499
0.3757319
0.3986069
0.3595301
0.3612488
0.3635376
0.3657025
0.3696217
0.3758325
0.3989512
0.3595641
0.3612891
0.3635882
0.365763
0.369694
0.3759337
0.3993295
0.3595983
0.3613291
0.3636388
0.3658231
0.3697666
0.3760355
0.3997651
0.3596322
0.3613696
0.3636894
0.365883
0.3698393
0.3761394
0.3995062
3.836451
4.433295
4.351227
4.351005
4.351005
4.351005
4.351005
4.351005
4.351005
4.351005
4.351005
4.351004
4.351004
4.351004
4.351004
4.351004
4.351004
4.351004
4.114409
4.354894
4.351014
4.35101
4.35101
4.35101
4.35101
4.35101
4.35101
4.35101
4.35101
4.35101
4.35101
4.35101
4.35101
4.35101
4.35101
4.35101
4.0884
4.360453
4.351015
4.35101
4.35101
4.35101
4.35101
4.35101
4.35101
4.35101
4.35101
4.35101
4.35101
4.35101
4.35101
4.35101
4.35101
4.35101
4.072014
4.360157
4.351015
4.35101
4.35101
4.35101
4.35101
4.35101
4.35101
4.35101
4.35101
4.35101
4.35101
4.35101
4.35101
4.35101
4.35101
4.35101
4.054051
4.359993
4.351015
4.35101
4.35101
4.35101
4.35101
4.35101
4.35101
4.35101
4.35101
4.35101
4.35101
4.35101
4.35101
4.35101
4.35101
4.35101
4.033531
4.360251
4.351015
4.35101
4.35101
4.35101
4.35101
4.35101
4.35101
4.35101
4.35101
4.35101
4.35101
4.35101
4.35101
4.35101
4.35101
4.35101
4.010685
4.360827
4.351016
4.35101
4.35101
4.35101
4.35101
4.35101
4.35101
4.35101
4.35101
4.35101
4.35101
4.35101
4.35101
4.35101
4.35101
4.35101
3.984539
4.361918
4.351016
4.35101
4.35101
4.35101
4.35101
4.35101
4.35101
4.35101
4.35101
4.35101
4.35101
4.35101
4.35101
4.35101
4.35101
4.35101
3.943006
4.363092
4.351017
4.35101
4.35101
4.35101
4.35101
4.35101
4.35101
4.35101
4.35101
4.35101
4.35101
4.35101
4.35101
4.35101
4.35101
4.35101
3.897822
4.363499
4.351017
4.35101
4.35101
4.35101
4.35101
4.35101
4.35101
4.35101
4.35101
4.35101
4.35101
4.35101
4.35101
4.35101
4.35101
4.35101
3.85301
4.364288
4.351017
4.35101
4.35101
4.35101
4.35101
4.35101
4.35101
4.35101
4.35101
4.35101
4.35101
4.35101
4.35101
4.35101
4.35101
4.35101
3.804262
4.364601
4.351018
4.35101
4.35101
4.35101
4.35101
4.35101
4.35101
4.35101
4.35101
4.35101
4.35101
4.35101
4.35101
4.35101
4.35101
4.35101
3.759452
4.365172
4.351018
4.35101
4.35101
4.35101
4.35101
4.35101
4.35101
4.35101
4.35101
4.35101
4.35101
4.35101
4.35101
4.35101
4.35101
4.35101
3.699158
4.366127
4.351019
4.35101
4.35101
4.35101
4.35101
4.35101
4.35101
4.35101
4.35101
4.35101
4.35101
4.35101
4.35101
4.35101
4.35101
4.35101
3.485434
4.366608
4.351022
4.35101
4.35101
4.35101
4.35101
4.35101
4.35101
4.35101
4.35101
4.35101
4.35101
4.35101
4.35101
4.35101
4.35101
4.35101
3.420044
4.378384
4.35127
4.351011
4.35101
4.35101
4.35101
4.35101
4.35101
4.35101
4.35101
4.35101
4.35101
4.35101
4.35101
4.35101
4.35101
4.35101
3.353563
4.366701
4.35106
4.351078
4.351011
4.35101
4.35101
4.35101
4.35101
4.35101
4.35101
4.35101
4.35101
4.35101
4.35101
4.35101
4.35101
4.35101
3.27857
4.367644
4.351025
4.351032
4.351026
4.35101
4.35101
4.35101
4.35101
4.35101
4.35101
4.35101
4.35101
4.35101
4.35101
4.35101
4.35101
4.35101
3.204986
4.367336
4.351021
4.351014
4.351024
4.351012
4.35101
4.35101
4.35101
4.35101
4.35101
4.35101
4.35101
4.35101
4.35101
4.35101
4.35101
4.35101
3.131925
4.367506
4.351021
4.35101
4.351012
4.351015
4.35101
4.35101
4.35101
4.35101
4.35101
4.35101
4.35101
4.35101
4.35101
4.35101
4.35101
4.35101
3.060402
4.367173
4.351021
4.35101
4.35101
4.351012
4.351011
4.35101
4.35101
4.35101
4.35101
4.35101
4.35101
4.35101
4.35101
4.35101
4.35101
4.35101
2.993698
4.367428
4.35102
4.35101
4.35101
4.35101
4.351011
4.35101
4.35101
4.35101
4.35101
4.35101
4.35101
4.35101
4.35101
4.35101
4.35101
4.35101
2.930064
4.366859
4.35102
4.35101
4.35101
4.35101
4.35101
4.35101
4.35101
4.35101
4.35101
4.35101
4.35101
4.35101
4.35101
4.35101
4.35101
4.35101
2.86629
4.366844
4.351019
4.35101
4.35101
4.35101
4.35101
4.35101
4.35101
4.35101
4.35101
4.35101
4.35101
4.35101
4.35101
4.35101
4.35101
4.35101
2.803586
4.366882
4.351019
4.35101
4.351011
4.35101
4.35101
4.35101
4.35101
4.35101
4.35101
4.35101
4.35101
4.35101
4.35101
4.35101
4.35101
4.35101
2.741231
4.36683
4.351019
4.35101
4.351011
4.35101
4.35101
4.35101
4.35101
4.35101
4.35101
4.35101
4.35101
4.35101
4.351011
4.35101
4.35101
4.35101
2.676802
4.366516
4.351019
4.35101
4.351012
4.35101
4.35101
4.35101
4.35101
4.35101
4.35101
4.35101
4.35101
4.35101
4.35101
4.35101
4.35101
4.35101
2.613089
4.366372
4.351019
4.35101
4.351014
4.35101
4.35101
4.35101
4.35101
4.35101
4.35101
4.35101
4.35101
4.35101
4.35101
4.35101
4.35101
4.35101
2.549966
4.366329
4.35102
4.351011
4.351019
4.35101
4.35101
4.35101
4.351011
4.35101
4.35101
4.35101
4.35101
4.35101
4.35101
4.35101
4.35101
4.35101
2.485617
4.365751
4.351021
4.351089
4.351118
4.351011
4.351011
4.351011
4.351011
4.35101
4.35101
4.35101
4.35101
4.35101
4.35101
4.35101
4.35101
4.35101
2.41987
4.365093
4.351056
4.356906
4.356495
4.351053
4.351014
4.351047
4.35103
4.35101
4.35101
4.35101
4.35101
4.35101
4.35101
4.35101
4.35101
4.35101
2.355882
4.365162
4.351081
4.357021
4.353039
4.351083
4.351018
4.351417
4.351363
4.351013
4.35101
4.35101
4.35101
4.351011
4.35101
4.35101
4.35101
4.35101
2.29172
4.372224
4.351158
4.355471
4.35244
4.35103
4.351024
4.351039
4.351008
4.35101
4.35101
4.35101
4.351011
4.351014
4.35101
4.35101
4.35101
4.351011
2.217865
4.373921
4.351782
4.366086
4.370959
4.351573
4.351036
4.351038
4.351016
4.351012
4.35101
4.35101
4.35101
4.35101
4.35101
4.35101
4.351012
4.351011
2.03508
4.355147
4.354065
4.380065
4.364494
4.377631
4.351062
4.351083
4.351196
4.351147
4.35101
4.35101
4.351014
4.35101
4.35101
4.35101
4.351016
4.35101
1.961002
4.389995
4.358343
4.350878
4.35901
4.351279
4.351333
4.35202
4.352199
4.351054
4.35101
4.35101
4.351014
4.35101
4.35101
4.351011
4.351015
4.35101
1.844396
4.496973
4.359971
4.356122
4.353425
4.351593
4.351569
4.351196
4.351162
4.351071
4.351015
4.351002
4.351074
4.35101
4.35101
4.351015
4.351009
4.35101
1.005087
4.452104
4.426621
4.392845
4.35801
4.353173
4.352936
4.352817
4.352664
4.352271
4.351989
4.351537
4.351173
4.350998
4.350999
4.351042
4.351011
4.35101
0.2860101
4.505549
4.411691
4.37835
4.357362
4.354585
4.353888
4.354298
4.354081
4.353484
4.35352
4.353228
4.352718
4.352023
4.35121
4.351053
4.351004
4.35101
0.7335954
4.634642
4.470528
4.389547
4.353592
4.355547
4.354532
4.353836
4.355172
4.35457
4.354814
4.355343
4.354301
4.353925
4.353501
4.351994
4.351064
4.350983
0.7639128
4.186056
4.506473
4.354622
4.354418
4.356794
4.354936
4.354539
4.356117
4.355585
4.356038
4.356858
4.355755
4.355536
4.354862
4.354037
4.35296
4.351462
0.2083618
4.248514
4.420091
4.355462
4.354698
4.361614
4.355326
4.355041
4.356872
4.356485
4.357226
4.357027
4.357129
4.357483
4.356128
4.355728
4.354802
4.35365
0.4233938
4.36948
4.445828
4.354919
4.355038
4.355103
4.35539
4.35545
4.357404
4.357237
4.358629
4.357714
4.358373
4.358755
4.357773
4.357312
4.356637
4.355041
0.477632
4.433412
4.41844
4.354707
4.363089
4.35401
4.355455
4.355705
4.357687
4.357868
4.35991
4.358881
4.360029
4.359449
4.359159
4.359062
4.357596
4.357114
0.4619733
4.423663
4.501485
4.380113
4.357967
4.355557
4.355506
4.355802
4.35761
4.359049
4.359829
4.359763
4.361929
4.359935
4.360681
4.359656
4.359539
4.358462
0.4499119
4.345321
4.505696
4.39424
4.38046
4.357696
4.355591
4.355809
4.357308
4.360887
4.359145
4.361596
4.362946
4.361318
4.361553
4.361421
4.360215
4.359931
0.4095579
4.155466
4.650624
4.437325
4.368006
4.362784
4.355196
4.356464
4.357086
4.361255
4.360613
4.360201
4.363192
4.363695
4.364261
4.361841
4.361542
4.360889
0.4504654
3.189222
4.60403
4.395077
4.387715
4.368099
4.354049
4.356147
4.357706
4.361095
4.360098
4.36107
4.365116
4.367039
4.363764
4.362933
4.363009
4.361798
0.3804155
2.096005
4.447525
4.545367
4.495007
4.354769
4.354677
4.358432
4.373963
4.36164
4.362
4.362165
4.369265
4.365964
4.364483
4.362683
4.362941
4.362932
0.4023334
1.351254
4.037373
4.564283
4.436908
4.454556
4.380029
4.36029
4.372544
4.364933
4.36666
4.363841
4.362594
4.36314
0.3849665
0.4239544
4.41075
4.386207
4.366821
4.374464
4.363617
4.362408
4.363108
4.36241
0.3826145
4.432692
4.367657
4.364879
4.364489
4.362605
4.362775
4.363488
4.376879
4.36425
4.37028
4.364265
4.364003
4.36333
4.372334
4.362635
4.361678
4.362626
4.36274
4.440085
4.362764
4.362595
4.362471
4.362659
4.371707
4.360022
4.360662
4.361617
4.362193
4.358206
4.358612
4.360201
4.361114
4.361719
4.368448
4.360739
4.362725
4.361247
4.361747
4.395253
4.360655
4.360273
4.361426
4.36061
4.413489
4.369781
4.361684
4.360984
4.361559
4.360428
0.3851947
4.380191
4.364886
4.360601
4.358775
4.360294
4.360247
0.3857892
0.7150306
4.4062
4.361943
4.359841
4.35862
4.359817
4.358506
4.358938
0.3982489
1.264159
3.601817
4.436436
4.417871
4.359782
4.367814
4.367292
4.357832
4.358322
4.35924
4.359005
0.3924651
1.601476
4.460418
4.553519
4.418128
4.355241
4.35556
4.366552
4.430834
4.365588
4.353205
4.356903
4.356632
4.36072
4.359369
4.359868
4.357478
4.358098
0.4925989
2.899527
4.676478
4.457813
4.362548
4.360662
4.348537
4.350548
4.354284
4.360303
4.353694
4.353446
4.357802
4.356869
4.357991
4.356089
4.358289
4.356749
0.497169
3.794041
4.542292
4.405897
4.381221
4.373561
4.348023
4.350136
4.350826
4.351513
4.353399
4.352505
4.35693
4.355298
4.356078
4.357461
4.355766
4.357144
0.3986856
4.193773
4.654491
4.422861
4.347276
4.350233
4.348427
4.348346
4.349841
4.351472
4.35192
4.35455
4.353592
4.355369
4.355234
4.354795
4.356667
4.355137
0.4220196
4.42205
4.430374
4.494367
4.382146
4.346688
4.347696
4.348005
4.349666
4.352496
4.353947
4.353616
4.354608
4.353844
4.353788
4.355753
4.354107
4.355322
0.4079898
4.362215
4.385152
4.339538
4.34915
4.346477
4.347613
4.347881
4.349922
4.350261
4.353961
4.351815
4.354228
4.352822
4.355409
4.353647
4.354694
4.353582
0.4045763
4.39609
4.432461
4.348297
4.359064
4.346222
4.347849
4.347879
4.350056
4.349993
4.351158
4.351326
4.352825
4.35242
4.352839
4.352704
4.353104
4.352697
0.317984
4.375185
4.463933
4.347902
4.346885
4.364841
4.348339
4.348135
4.350237
4.349837
4.351034
4.351037
4.351892
4.353518
4.352345
4.353963
4.352325
4.352625
0.03684237
4.176554
4.554456
4.367244
4.349625
4.35545
4.348978
4.34857
4.3505
4.350017
4.351893
4.350959
4.351666
4.352079
4.351976
4.351887
4.351755
4.351394
0.6264009
4.167409
4.516131
4.35108
4.350859
4.352474
4.349813
4.349217
4.350794
4.350292
4.352097
4.351733
4.351501
4.35175
4.352161
4.351552
4.351208
4.350788
0.9324839
4.615259
4.425917
4.357303
4.351333
4.351916
4.350644
4.350464
4.351141
4.350681
4.350846
4.351401
4.351427
4.351504
4.351375
4.350893
4.350885
4.350994
0.2831762
4.682494
4.431525
4.357693
4.353204
4.351586
4.351199
4.351443
4.351423
4.351131
4.351258
4.351146
4.351181
4.350971
4.350872
4.350998
4.351006
4.35101
1.515683
4.503763
4.397387
4.36503
4.353594
4.351524
4.351534
4.351427
4.35133
4.351245
4.351089
4.35097
4.350961
4.350985
4.351004
4.351013
4.351011
4.35101
1.75609
4.366111
4.353222
4.353461
4.352193
4.351105
4.351158
4.351128
4.351379
4.351
4.350997
4.351006
4.351011
4.35101
4.35101
4.351011
4.351028
4.35101
1.89512
4.409412
4.353974
4.352449
4.373874
4.353244
4.35111
4.351635
4.351209
4.351236
4.35101
4.35101
4.351011
4.35101
4.35101
4.35101
4.351028
4.35101
2.011655
4.551682
4.354162
4.401421
4.362422
4.36527
4.351041
4.35102
4.351083
4.351039
4.35101
4.35101
4.35101
4.35101
4.35101
4.35101
4.35101
4.35101
2.235133
4.456623
4.354187
4.369348
4.371734
4.351086
4.351021
4.351027
4.35101
4.35101
4.35101
4.35101
4.35101
4.351011
4.35101
4.35101
4.35101
4.351011
2.306281
4.3784
4.351191
4.354851
4.351296
4.351016
4.351015
4.351086
4.351087
4.351011
4.35101
4.35101
4.35101
4.351011
4.35101
4.35101
4.35101
4.351011
2.375917
4.384648
4.351059
4.36277
4.356898
4.35108
4.351012
4.351408
4.351248
4.351015
4.35101
4.35101
4.35101
4.35101
4.35101
4.35101
4.35101
4.35101
2.445014
4.384171
4.351073
4.353853
4.354807
4.351033
4.351011
4.351015
4.351012
4.35101
4.35101
4.35101
4.35101
4.35101
4.35101
4.35101
4.35101
4.35101
2.513608
4.382243
4.351037
4.351035
4.351036
4.35101
4.351011
4.35101
4.351011
4.35101
4.35101
4.35101
4.35101
4.35101
4.35101
4.35101
4.35101
4.35101
2.579291
4.380709
4.351032
4.351011
4.35102
4.35101
4.35101
4.35101
4.35101
4.35101
4.35101
4.35101
4.35101
4.35101
4.35101
4.35101
4.35101
4.35101
2.646526
4.379223
4.35103
4.35101
4.351015
4.35101
4.35101
4.35101
4.35101
4.35101
4.35101
4.35101
4.35101
4.35101
4.35101
4.35101
4.35101
4.35101
2.712313
4.377978
4.351029
4.35101
4.351013
4.35101
4.35101
4.35101
4.35101
4.35101
4.35101
4.35101
4.35101
4.35101
4.351011
4.35101
4.35101
4.35101
2.776153
4.376177
4.351027
4.35101
4.351011
4.35101
4.35101
4.35101
4.35101
4.35101
4.35101
4.35101
4.35101
4.35101
4.351011
4.35101
4.35101
4.35101
2.839438
4.375741
4.351028
4.35101
4.351011
4.35101
4.35101
4.35101
4.35101
4.35101
4.35101
4.35101
4.35101
4.35101
4.35101
4.35101
4.35101
4.35101
2.904827
4.374053
4.351026
4.35101
4.35101
4.35101
4.35101
4.35101
4.35101
4.35101
4.35101
4.35101
4.35101
4.35101
4.35101
4.35101
4.35101
4.35101
2.968174
4.373577
4.351026
4.35101
4.35101
4.35101
4.35101
4.35101
4.35101
4.35101
4.35101
4.35101
4.35101
4.35101
4.35101
4.35101
4.35101
4.35101
3.033657
4.372974
4.351026
4.35101
4.35101
4.35101
4.351012
4.35101
4.35101
4.35101
4.35101
4.35101
4.35101
4.35101
4.35101
4.35101
4.35101
4.35101
3.099244
4.372811
4.351027
4.35101
4.351011
4.351019
4.351012
4.35101
4.35101
4.35101
4.35101
4.35101
4.35101
4.35101
4.35101
4.35101
4.35101
4.35101
3.169309
4.371815
4.351026
4.351012
4.351044
4.351027
4.35101
4.35101
4.35101
4.35101
4.35101
4.35101
4.35101
4.35101
4.35101
4.35101
4.35101
4.35101
3.24463
4.370492
4.35103
4.351113
4.351125
4.351011
4.35101
4.35101
4.35101
4.35101
4.35101
4.35101
4.35101
4.35101
4.35101
4.35101
4.35101
4.35101
3.320692
4.370001
4.351281
4.351362
4.351014
4.35101
4.35101
4.35101
4.35101
4.35101
4.35101
4.35101
4.35101
4.35101
4.35101
4.35101
4.35101
4.35101
3.399454
4.365604
4.352012
4.351016
4.351011
4.35101
4.35101
4.35101
4.35101
4.35101
4.35101
4.35101
4.35101
4.35101
4.35101
4.35101
4.35101
4.35101
3.466851
4.378955
4.351043
4.35101
4.35101
4.35101
4.35101
4.35101
4.35101
4.35101
4.35101
4.35101
4.35101