/*--------------------------------*- C++ -*----------------------------------*\
| =========                 |                                                 |
| \\      /  F ield         | OpenFOAM: The Open Source CFD Toolbox           |
|  \\    /   O peration     | Version:  2206                                  |
|   \\  /    A nd           | Website:  www.openfoam.com                      |
|    \\/     M anipulation  |                                                 |
\*---------------------------------------------------------------------------*/
FoamFile
{
    version     2.0;
    format      ascii;
    arch        "LSB;label=32;scalar=64";
    class       volScalarField;
    location    "1.8";
    object      p_rbgh;
}
// * * * * * * * * * * * * * * * * * * * * * * * * * * * * * * * * * * * * * //

dimensions      [1 -1 -2 0 0 0 0];

internalField   nonuniform List<scalar> 
13078
(
8.551375
3.856976
0.6095261
-1.274978
-2.335115
-2.946328
-3.22379
6.664523
2.98694
0.2439988
-1.421823
-2.434766
-3.0254
-3.291892
2.545216
0.9691021
-0.5931029
-1.838069
-2.692558
-3.206059
-3.431087
0.1695514
-0.602777
-1.555265
-2.41677
-3.07658
-3.483154
-3.643454
-1.451242
-1.905729
-2.519179
-3.107199
-3.56481
-3.849837
-3.930054
-2.828062
-3.101653
-3.489621
-3.871331
-4.1588
-4.306645
-4.292756
-4.106689
-4.26387
-4.48915
-4.705825
-4.843674
-4.862058
-4.737326
-5.358893
-5.434716
-5.538394
-5.614718
-5.615956
-5.510899
-5.271871
-6.628312
-6.642271
-6.646763
-6.603029
-6.478331
-6.251614
-5.897107
-7.946772
-7.910568
-7.8308
-7.679563
-7.43571
-7.087959
-6.613376
-9.341026
-9.261015
-9.105931
-8.854638
-8.495161
-8.025395
-7.425467
-10.83528
-10.71445
-10.48857
-10.14061
-9.666033
-9.071314
-8.339561
-12.45299
-12.29202
-11.99658
-11.55199
-10.96003
-10.23521
-9.363496
-14.21797
-14.01586
-13.64955
-13.10571
-12.39208
-11.52875
-10.50696
-16.15532
-15.90973
-15.46927
-14.82681
-13.99177
-12.96685
-11.78168
-18.29209
-17.99962
-17.48046
-16.74231
-15.76166
-14.56484
-13.20163
-20.65792
-20.31389
-19.70808
-18.85174
-17.71783
-16.3411
-14.7829
-23.28577
-22.88438
-22.18281
-21.19508
-19.89243
-18.31772
-16.54389
-26.21259
-25.74676
-24.93836
-23.80439
-22.31469
-20.52143
-18.50547
-29.48014
-28.9414
-28.01283
-26.71549
-25.03362
-23.01455
-20.69363
-33.1359
-32.51416
-31.44976
-29.97008
-28.09591
-25.78555
-23.13172
-37.23409
-36.51728
-35.298
-33.60862
-31.4781
-28.85342
-25.84802
-41.83687
-41.01072
-39.61418
-37.68539
-35.25999
-32.28095
-28.88165
-47.01582
-46.06349
-44.46333
-42.26028
-39.49934
-36.156
-32.34426
-52.85351
-51.75517
-49.92054
-47.40286
-44.26183
-40.55111
-36.19009
-59.44516
-58.17751
-56.07212
-53.19169
-49.60722
-45.3891
-40.43018
-66.90066
-65.43664
-63.01819
-59.71929
-55.62361
-50.81468
-45.17384
-75.34702
-73.65678
-70.87464
-67.0927
-62.40732
-56.92082
-50.58418
-84.93122
-82.9792
-79.77544
-75.43616
-70.0707
-63.81082
-56.77387
-95.83101
-93.6021
-89.88045
-84.89401
-78.74096
-71.56532
-63.51158
-108.2571
-105.6713
-101.3707
-95.63726
-88.57668
-80.33982
-71.09296
-122.3625
-119.4256
-114.5567
-107.8855
-99.76559
-90.31024
-79.69847
-138.4233
-135.165
-129.6423
-122.0432
-112.5404
-101.6759
-89.46014
-156.6998
-152.9771
-146.8915
-138.136
-127.1511
-114.6772
-100.624
-177.4903
-173.2221
-166.313
-156.5325
-144.2294
-129.6442
-113.4622
-201.1233
-196.242
-188.4189
-177.7686
-163.9345
-147.3637
-128.3224
-227.9569
-222.3841
-213.5151
-201.5401
-186.5254
-167.5056
-145.5107
-258.3867
-252.0365
-241.9844
-228.4464
-211.5685
-190.5525
-166.0005
-292.8499
-285.6457
-274.2369
-258.9374
-239.9418
-217.1308
-188.5121
-331.9022
-323.8554
-310.7744
-293.3957
-271.7694
-245.646
-213.0729
-376.0603
-367.171
-352.5174
-332.3492
-307.4944
-277.3219
-240.7463
-425.4097
-415.9321
-399.7571
-377.0952
-347.8745
-312.7279
-269.7634
-480.0907
-469.5934
-452.587
-427.7619
-394.9406
-352.9956
-301.4555
-539.5715
-528.106
-509.7723
-484.2594
-448.3201
-399.9286
-335.8807
-602.9206
-590.8888
-571.3262
-544.4663
-506.7043
-451.5022
-376.6867
-668.7566
-656.6395
-637.2343
-608.607
-565.7241
-505.9504
-421.4804
-735.41
-723.6029
-704.1715
-672.8864
-625.5065
-558.0973
-469.7324
-801.8559
-789.4233
-767.888
-733.7678
-681.4491
-609.5511
-514.8165
-866.703
-852.7419
-827.3463
-787.7139
-730.5734
-653.5867
-552.4442
-928.2094
-911.5695
-880.7608
-833.8517
-768.7825
-684.366
-579.6795
-984.9621
-965.4267
-927.8478
-871.6489
-797.5828
-704.7899
-593.2905
-1035.184
-1012.247
-967.7982
-904.2399
-821.5621
-720.2172
-600.1915
-1077.079
-1050.334
-1001.046
-930.8885
-841.0058
-731.3526
-599.5823
-1110.321
-1080.513
-1026.431
-950.9207
-855.2935
-739.376
-601.4466
-1134.968
-1103.48
-1046.663
-968.1692
-869.7438
-751.2723
-611.7151
-1151.018
-1119.38
-1062.277
-983.7795
-886.0598
-769.3674
-633.2783
-1157.728
-1127.034
-1071.562
-995.4181
-901.0127
-788.9703
-659.0557
-1154.199
-1125.113
-1072.565
-1000.216
-910.31
-803.6031
-679.9293
-1139.812
-1113.072
-1064.647
-997.2925
-912.6946
-811.394
-692.8822
-1113.877
-1090.123
-1046.592
-984.8083
-905.8254
-809.7057
-694.5321
-1076.251
-1055.641
-1015.978
-959.3161
-885.1578
-793.3385
-682.7869
-1027.583
-1009.367
-974.5277
-922.2817
-852.9276
-764.6806
-656.4895
-970.191
-953.8989
-923.8825
-878.0387
-814.0175
-729.9516
-623.8333
-906.5558
-892.3331
-866.2861
-825.339
-766.1551
-686.2997
-580.5122
-838.6599
-825.6918
-802.6874
-765.7713
-709.2856
-632.6267
-533.1072
-768.741
-756.384
-735.2677
-700.6782
-648.7103
-576.5284
-484.6259
-698.6221
-686.1503
-665.3538
-633.9457
-587.1899
-523.821
-438.54
-629.7935
-617.7418
-597.4257
-568.7552
-528.3863
-471.4129
-396.7459
-564.2311
-553.0062
-534.5379
-508.2072
-471.2811
-422.046
-357.5633
-503.2066
-493.0114
-476.2215
-451.5532
-418.6092
-376.2592
-323.1471
-447.2586
-438.0067
-422.2692
-400.0056
-370.9491
-334.8519
-290.3783
-396.5875
-387.8833
-373.5163
-353.5622
-328.2396
-297.0241
-258.8337
-350.9522
-342.9839
-329.9708
-312.1615
-289.6645
-262.257
-228.1179
-310.2454
-303.0462
-291.4852
-275.4382
-255.2153
-231.0347
-200.6122
-274.0756
-267.6511
-257.2161
-242.9093
-224.8158
-202.3061
-175.9293
-241.9767
-236.2258
-226.9018
-214.1397
-197.7771
-177.5353
-154.1174
-213.5718
-208.4783
-200.1914
-188.8897
-173.9941
-156.142
-136.1141
-188.4727
-184.0121
-176.7012
-166.3387
-153.2612
-137.7351
-120.5919
-166.3715
-162.4643
-156.049
-146.7908
-135.1519
-121.9347
-107.0912
-146.9284
-143.5071
-137.6925
-129.6733
-119.6286
-108.1474
-95.26718
-129.8249
-126.7396
-121.6199
-114.5895
-106.0212
-96.04097
-84.85015
-114.7886
-112.0717
-107.5511
-101.5145
-94.06854
-85.37335
-75.60694
-101.5293
-99.18658
-95.27444
-90.02416
-83.53312
-75.95014
-67.42469
-89.888
-87.83413
-84.46442
-79.89231
-74.22636
-67.6005
-60.13313
-79.64456
-77.86375
-74.93397
-70.94418
-65.98929
-60.17132
-53.43015
-70.61326
-69.06831
-66.51762
-63.03211
-58.69388
-53.58533
-47.5725
-62.6407
-61.3007
-59.07644
-56.0281
-52.22525
-47.73715
-42.44314
-55.59407
-54.43108
-52.48957
-49.82083
-46.48345
-42.5298
-37.86883
-49.35808
-48.34808
-46.65193
-44.31315
-41.37564
-37.80925
-33.73238
-43.83237
-42.9549
-41.47231
-39.42178
-36.83815
-33.65751
-30.01959
-38.92954
-38.16715
-36.87085
-35.07239
-32.80031
-29.99586
-26.7782
-34.57347
-33.91131
-32.778
-31.2006
-29.19963
-26.7292
-23.88697
-30.69776
-30.12318
-29.13289
-27.74779
-25.95007
-23.78917
-21.30236
-27.24432
-26.74665
-25.88284
-24.66993
-23.07533
-21.15411
-18.99247
-24.16213
-23.73231
-22.98073
-21.92165
-20.52448
-18.83482
-16.93084
-21.40627
-21.03664
-20.38524
-19.46381
-18.2441
-16.76352
-15.08826
-18.937
-18.62114
-18.05981
-17.26141
-16.20197
-14.91042
-13.44111
-16.71896
-16.45155
-15.9712
-15.27123
-14.36283
-13.25086
-11.96856
-14.72057
-14.49747
-14.09237
-13.49266
-12.7086
-11.76411
-10.65228
-12.91327
-12.73127
-12.39674
-11.89651
-11.23559
-10.43282
-9.476299
-11.27093
-11.12796
-10.8609
-10.45548
-9.911362
-9.240019
-8.427014
-9.769337
-9.664606
-9.463978
-9.1509
-8.719058
-8.172138
-7.493043
-8.385416
-8.319752
-8.18703
-7.966646
-7.645135
-7.217937
-6.665051
-7.096441
-7.072937
-7.012817
-6.888783
-6.67846
-6.368418
-5.935631
-5.878898
-5.903999
-5.925314
-5.90543
-5.810248
-5.616742
-5.299147
-4.706718
-4.792093
-4.907562
-5.006079
-5.034019
-4.958097
-4.75488
-3.549104
-3.714048
-3.951891
-4.184599
-4.345766
-4.393344
-4.301311
-2.362737
-2.642384
-3.040422
-3.437041
-3.747732
-3.926097
-3.931497
-1.077223
-1.535646
-2.156861
-2.762694
-3.250077
-3.548117
-3.640108
0.4508899
-0.3220897
-1.287253
-2.179934
-2.845405
-3.256922
-3.425284
2.720717
1.142526
-0.4545299
-1.69155
-2.541426
-3.05642
-3.285692
6.649219
2.964611
0.2823335
-1.359617
-2.365506
-2.954075
-3.220452
-3.23512
-3.026378
-2.641264
-2.246462
-1.668908
-1.049235
-0.4105048
-3.296246
-3.082612
-2.694876
-2.290972
-1.715257
-1.1121
-0.5688748
-3.409624
-3.177304
-2.773162
-2.241
-1.777853
-1.178736
-0.6414329
-3.578869
-3.315083
-2.887967
-2.44794
-1.849531
-1.234876
-0.6787889
-3.80691
-3.496626
-3.028533
-2.55974
-1.927695
-1.284991
-0.7071873
-4.097926
-3.727223
-3.204836
-2.692391
-2.012582
-1.327336
-0.7246911
-4.456339
-4.012181
-3.421506
-2.851517
-2.096255
-1.351494
-0.7054539
-4.889336
-4.357104
-3.685126
-3.044394
-2.193181
-1.354194
-0.5213459
-5.402777
-4.76962
-4.002554
-3.281225
-2.329775
-1.3983
-0.4947566
-6.001797
-5.25239
-4.380651
-3.568415
-2.508624
-1.491141
-0.5285733
-6.687935
-5.81366
-4.817465
-3.909756
-2.727467
-1.610405
-0.5575636
-7.466521
-6.455478
-5.323253
-4.300588
-2.986147
-1.752475
-0.5968745
-8.344066
-7.183126
-5.900027
-4.750104
-3.278727
-1.916529
-0.6334437
-9.328591
-8.003061
-6.552747
-5.261401
-3.615051
-2.096748
-0.6702427
-10.42979
-8.923102
-7.287384
-5.838984
-3.997076
-2.309553
-0.751806
-11.65927
-9.952576
-8.111093
-6.487983
-4.426436
-2.54466
-0.7957087
-13.03049
-11.10247
-9.032466
-7.214814
-4.909965
-2.808334
-0.8608236
-14.55889
-12.38539
-10.06168
-8.032683
-5.540915
-3.103724
-0.9337483
-16.26181
-13.81541
-11.20934
-8.941107
-6.156727
-3.433612
-1.016181
-18.15872
-15.4082
-12.48783
-9.953295
-6.841267
-3.801457
-1.108197
-20.27119
-17.18083
-13.91013
-11.07967
-7.603212
-4.211263
-1.211202
-22.62282
-19.15181
-15.49012
-12.32967
-8.44891
-4.667026
-1.327302
-25.23973
-21.34099
-17.24656
-13.7038
-9.386795
-5.172245
-1.457758
-28.15605
-23.76704
-19.17518
-14.4431
-10.58634
-5.73955
-1.603793
-31.39866
-26.4594
-21.33755
-16.93892
-11.80885
-6.353148
-1.766425
-34.99724
-29.42258
-23.66125
-18.79246
-13.09048
-7.020385
-1.945876
-39.00936
-32.69036
-26.21635
-20.80306
-14.47165
-7.743021
-2.141177
-43.64046
-36.28341
-29.00135
-22.97619
-15.95935
-8.770829
-2.350503
-48.80366
-41.29977
-33.29522
-25.29429
-17.52154
-9.672146
-2.566946
-54.34602
-45.83738
-36.76242
-27.77872
-19.12079
-10.48924
-2.776359
-60.82187
-51.17083
-40.49119
-30.33666
-20.67918
-11.4405
-2.965612
-68.15249
-56.93746
-44.44413
-32.88426
-22.06446
-12.31353
-3.046086
-76.14098
-63.85094
-48.66506
-35.31298
-23.06189
-12.39722
-2.865503
-85.19773
-70.9716
-53.62449
-37.50611
-23.40715
-11.64296
-2.364286
-95.63011
-79.05733
-59.11377
-39.36206
-22.88903
-9.86272
-1.065382
-107.7545
-88.32541
-65.53821
-40.71849
-21.34175
-7.482901
-0.4637546
-121.8073
-98.96698
-71.47403
-42.18739
-17.94023
-3.69438
0.1572935
-137.6839
-110.7125
-76.97707
-41.08009
-11.02001
4.438159
3.277684
-154.7637
-122.8167
-81.19321
-37.33827
1.288983
19.42992
10.95527
-173.8625
-134.5922
-83.48669
-28.59197
19.97391
42.33329
26.29338
-193.7496
-146.0243
-84.21583
-16.25332
45.05263
70.61941
47.14022
-215.4238
-160.5358
-85.31466
-2.613231
73.00592
94.42681
57.81951
-234.9299
-170.368
-81.94161
15.42711
102.0264
109.773
53.34433
-253.7599
-174.6579
-66.42418
49.82095
142.2219
130.6851
60.50378
-279.2
-187.1062
-53.26687
100.1181
189.2618
154.811
79.79791
-312.5227
-202.6151
-40.82186
146.7474
223.8456
180.3274
98.95665
-351.2847
-229.0584
-48.10033
167.0128
247.9004
205.1476
113.4362
-388.801
-263.6714
-76.70239
139.7682
262.8522
227.5369
124.5302
-426.3092
-299.353
-118.0538
92.58445
257.3297
241.4615
126.448
-449.8317
-325.0131
-145.223
52.40632
233.5758
242.0087
133.1876
-462.5399
-347.153
-168.9532
23.48213
201.3106
233.9247
148.054
-459.4013
-344.1138
-179.5314
-12.47055
130.0331
207.3532
154.4588
-450.3769
-332.2304
-164.6577
-28.77834
67.33164
133.4294
126.4717
-443.3207
-315.658
-154.9096
-41.81543
52.58626
107.8318
102.2861
-452.1644
-322.0537
-174.3992
-58.25107
49.96276
143.2044
146.5451
-480.0348
-350.022
-198.4075
-72.01533
42.18447
133.2594
-513.2911
-387.7017
-228.8803
-86.60368
23.48113
110.4852
-540.5331
-420.6663
-261.3304
-104.0214
15.14537
97.86044
-559.02
-443.5979
-283.5958
-118.9841
10.80018
104.2437
127.6784
-563.1589
-452.9775
-287.6498
-117.8511
34.1084
149.5374
168.0265
-549.538
-439.1035
-270.7709
-83.38186
99.6587
220.9866
181.9585
-526.2568
-415.9508
-237.2357
-21.65437
196.5297
247.0398
158.7514
-488.6797
-375.7735
-174.0527
51.56491
245.1621
232.3439
129.2409
-447.725
-330.1724
-140.81
87.9407
257.0026
217.1844
91.15687
-403.32
-296.8659
-107.5062
110.9957
252.4119
196.8611
78.40769
-365.2849
-260.1012
-87.67265
114.8385
226.2815
182.5326
83.82094
-331.5562
-238.9765
-80.02679
92.61473
190.8695
164.1836
75.69828
-301.9471
-219.2929
-84.82956
59.99652
142.7845
133.2498
63.39741
-277.6671
-207.0676
-94.64379
28.36494
103.4313
103.0793
53.17641
-255.7288
-196.5451
-102.3821
-0.3266503
75.82452
82.94064
43.03526
-234.2123
-185.8548
-106.1793
-18.54961
52.86303
71.33605
46.88446
-210.415
-170.1268
-102.7078
-30.86241
29.97693
58.07764
43.25099
-187.1626
-153.5958
-98.36316
-40.66938
9.317
37.45486
28.92179
-164.9752
-138.8483
-93.36238
-46.29881
-3.819764
19.73305
15.78957
-145.7651
-124.3923
-87.17943
-49.01313
-13.54538
6.210056
7.323236
-128.8247
-111.0514
-80.58239
-48.24239
-20.98564
-3.786064
1.685911
-114.3154
-99.32388
-74.05475
-47.29228
-25.12624
-9.357573
-0.5379064
-101.8088
-89.12944
-67.52568
-45.04563
-26.77663
-12.0523
-0.9243113
-90.89357
-80.1382
-61.07769
-42.66765
-26.81826
-13.24048
-1.650946
-81.27783
-72.04926
-54.9597
-39.85712
-25.88017
-13.4092
-1.94924
-72.6919
-64.31932
-49.98543
-36.80997
-24.36985
-12.95435
-1.830762
-64.74908
-57.61721
-45.30031
-33.69809
-22.56472
-12.12381
-1.770357
-57.6982
-51.2682
-40.93342
-30.64232
-20.65629
-10.63327
-1.604356
-51.64726
-45.99462
-36.87849
-27.72039
-18.76334
-9.676526
-1.430293
-46.01679
-38.12471
-30.27614
-24.98087
-16.95575
-8.745277
-1.249614
-40.97675
-34.18865
-27.20505
-22.48343
-15.25354
-7.620853
-1.076345
-36.62198
-30.62714
-24.40899
-20.19403
-13.69657
-6.734852
-0.9177129
-32.73041
-27.41395
-21.8719
-18.10644
-12.27416
-6.022761
-0.7763821
-29.24027
-24.52135
-19.57808
-16.21209
-10.97747
-5.374915
-0.6533252
-26.11299
-21.92214
-17.5112
-14.50118
-9.633439
-4.782558
-0.5469029
-23.31881
-19.59039
-15.65388
-12.9621
-8.559403
-4.255367
-0.4556022
-20.81901
-17.50149
-13.9887
-11.58162
-7.64334
-3.789
-0.3790989
-18.58372
-15.63251
-12.4987
-10.34653
-6.825066
-3.375527
-0.3181141
-16.58587
-13.96192
-11.16749
-9.243757
-6.096473
-3.010301
-0.2702581
-14.80075
-12.4698
-9.979647
-8.260615
-5.448789
-2.688133
-0.2322265
-13.20608
-11.13802
-8.920694
-7.381282
-4.833795
-2.405113
-0.2037165
-11.78202
-9.950307
-7.978224
-6.603131
-4.280393
-2.157893
-0.1859933
-10.5109
-8.89207
-7.140335
-5.913468
-3.841491
-1.943318
-0.1844605
-9.377199
-7.950514
-6.396864
-5.302463
-3.453847
-1.75297
-0.1656901
-8.367486
-7.114699
-5.739272
-4.763073
-3.113427
-1.588808
-0.1610598
-7.470422
-6.375423
-5.160469
-4.289527
-2.817123
-1.445803
-0.1586611
-6.676554
-5.72508
-4.654642
-3.877071
-2.559813
-1.321058
-0.1561985
-5.978194
-5.157506
-4.219016
-3.519119
-2.339318
-1.220032
-0.1638231
-5.369205
-4.670152
-3.842171
-3.212542
-2.156353
-1.142614
-0.1889982
-4.847751
-4.254198
-3.527289
-2.957872
-2.009662
-1.085421
-0.2154775
-4.408193
-3.908599
-3.269419
-2.752675
-1.900852
-1.052676
-0.1982275
-4.046028
-3.626987
-3.063873
-2.593857
-1.842473
-1.075447
-0.3884547
-3.754893
-3.40452
-2.904426
-2.472376
-1.792659
-1.10903
-0.5210095
-3.530984
-3.236181
-2.78477
-2.380274
-1.751735
-1.117431
-0.5573506
-3.370518
-3.117337
-2.700088
-2.311983
-1.715544
-1.108775
-0.5690312
-3.269855
-3.044015
-2.647381
-2.265289
-1.684464
-1.086196
-0.5597234
-3.225578
-3.013025
-2.625339
-2.240946
-1.663339
-1.051283
-0.4590682
-0.5299273
-0.4949464
-0.4951278
-0.4989904
-0.504586
-0.5107322
-0.5162495
-0.5206844
-0.5238152
-0.5255416
-0.5258248
-0.5246544
-0.5220473
-0.5180324
-0.5126532
-0.5059435
-0.4979729
-0.4888013
-0.5512554
-0.5199824
-0.5161395
-0.5196302
-0.5250971
-0.5313419
-0.5368033
-0.5412946
-0.5444211
-0.5459897
-0.5460507
-0.5446055
-0.5416752
-0.5372921
-0.5315107
-0.5243499
-0.5158895
-0.5061987
-0.5341712
-0.5270506
-0.532349
-0.5392559
-0.5458527
-0.5526546
-0.5586742
-0.5632992
-0.566374
-0.5677919
-0.5676234
-0.5658847
-0.5626013
-0.5578111
-0.5515801
-0.5439128
-0.5349016
-0.5246264
-0.5437797
-0.5362203
-0.5502406
-0.5598238
-0.5677945
-0.5755778
-0.581806
-0.5866676
-0.5897493
-0.5910064
-0.5905994
-0.5885449
-0.5848741
-0.5796326
-0.5728997
-0.5646653
-0.5550374
-0.544108
-0.5647586
-0.5554491
-0.5723755
-0.5832486
-0.5917252
-0.6000358
-0.6063449
-0.6115277
-0.6146086
-0.6157046
-0.6150394
-0.6126492
-0.6085502
-0.6028076
-0.5954878
-0.5866455
-0.576329
-0.5646699
-0.5952022
-0.5884134
-0.6008464
-0.6112549
-0.6187636
-0.6262985
-0.6326771
-0.6378823
-0.6410283
-0.6419766
-0.6410262
-0.638266
-0.6336948
-0.6273946
-0.6194336
-0.609893
-0.5988117
-0.5863414
-0.6438471
-0.6333896
-0.6364476
-0.6438281
-0.6504489
-0.6555817
-0.6609198
-0.6660664
-0.6691522
-0.6698792
-0.6686458
-0.6654708
-0.6603847
-0.6534613
-0.6447929
-0.634459
-0.6225238
-0.6091528
-0.7313035
-0.6859444
-0.6765662
-0.6790765
-0.6850168
-0.6889774
-0.6919792
-0.6962512
-0.6990724
-0.6995645
-0.6979417
-0.6943672
-0.6887126
-0.6810825
-0.6716148
-0.6603909
-0.6475058
-0.6331361
-0.7642838
-0.7270951
-0.7130313
-0.7141764
-0.7207203
-0.7244749
-0.726789
-0.7285364
-0.7308395
-0.731043
-0.7290268
-0.724992
-0.7187925
-0.710338
-0.6999645
-0.6877397
-0.6737986
-0.6583229
-0.7664034
-0.7477816
-0.7402784
-0.7478643
-0.7567556
-0.7611672
-0.7633804
-0.7643965
-0.7645551
-0.7644028
-0.7616593
-0.7570892
-0.7507606
-0.7412922
-0.7299045
-0.7165581
-0.7014449
-0.6847448
-0.7739912
-0.7629103
-0.7680389
-0.7822137
-0.7933893
-0.7988638
-0.8013508
-0.8013883
-0.8008528
-0.7989519
-0.7975877
-0.7923277
-0.7843681
-0.7739845
-0.7615002
-0.7469011
-0.7304893
-0.712434
-0.794261
-0.7788038
-0.7985441
-0.8181032
-0.8312007
-0.8379038
-0.8409524
-0.84108
-0.8403563
-0.8386326
-0.8349744
-0.8289182
-0.8199885
-0.8085393
-0.7948348
-0.7788396
-0.7609805
-0.7414197
-0.8281146
-0.8020381
-0.8329356
-0.855743
-0.8707516
-0.8787441
-0.8824616
-0.8831781
-0.8813953
-0.8793628
-0.8750381
-0.8678328
-0.8577788
-0.8450938
-0.8300098
-0.8124394
-0.792968
-0.7717349
-0.8732816
-0.8351448
-0.8702956
-0.8956762
-0.9125412
-0.9218425
-0.9262357
-0.9273002
-0.9256941
-0.9228089
-0.9175271
-0.9091895
-0.8978738
-0.8837736
-0.8671271
-0.8477736
-0.8265012
-0.8034085
-0.9206158
-0.8719968
-0.9094304
-0.9381562
-0.9570676
-0.9676587
-0.9727428
-0.9741244
-0.972763
-0.9690539
-0.9627683
-0.9531831
-0.9404192
-0.9247051
-0.9062892
-0.8849149
-0.8616288
-0.836468
-0.9659371
-0.91568
-0.952067
-0.9838022
-1.004818
-1.016709
-1.022477
-1.024172
-1.022899
-1.018493
-1.011007
-0.9999784
-0.9855716
-0.9680196
-0.9476003
-0.9239346
-0.8983955
-0.8709345
-1.015168
-0.9627733
-0.9978576
-1.033197
-1.056285
-1.069505
-1.075915
-1.077913
-1.076586
-1.071326
-1.062475
-1.049807
-1.033506
-1.013856
-0.9911664
-0.9649001
-0.9368396
-0.9068194
-1.067422
-1.013904
-1.049564
-1.087111
-1.111853
-1.12655
-1.133571
-1.13578
-1.134216
-1.127878
-1.117454
-1.102883
-1.084405
-1.06236
-1.037095
-1.007874
-0.9769904
-0.9441217
-1.12281
-1.068162
-1.107147
-1.147309
-1.172706
-1.188434
-1.19591
-1.198208
-1.19617
-1.18849
-1.176224
-1.159444
-1.138461
-1.113681
-1.085492
-1.052913
-1.018866
-0.9828254
-1.181947
-1.126304
-1.168202
-1.213927
-1.240681
-1.255778
-1.263435
-1.265659
-1.262864
-1.253536
-1.239101
-1.219752
-1.195882
-1.167972
-1.136463
-1.100058
-1.062469
-1.022896
-1.246378
-1.189368
-1.233143
-1.28689
-1.315173
-1.330688
-1.336794
-1.338643
-1.334758
-1.323423
-1.306428
-1.284084
-1.256883
-1.225386
-1.18962
-1.149308
-1.107784
-1.064275
-1.31695
-1.258371
-1.304395
-1.366418
-1.396502
-1.412624
-1.418177
-1.417879
-1.412363
-1.398601
-1.378579
-1.352738
-1.321683
-1.286073
-1.245434
-1.200724
-1.154765
-1.106877
-1.394318
-1.33427
-1.382961
-1.453404
-1.485535
-1.502167
-1.507311
-1.50567
-1.496427
-1.479575
-1.455954
-1.426023
-1.390507
-1.350175
-1.304339
-1.254272
-1.203336
-1.150577
-1.479158
-1.417959
-1.469805
-1.549036
-1.583319
-1.600289
-1.604789
-1.601736
-1.589191
-1.567048
-1.53898
-1.504262
-1.463577
-1.417822
-1.366036
-1.309893
-1.253378
-1.195201
-1.572219
-1.510727
-1.566526
-1.654735
-1.691012
-1.708067
-1.711638
-1.70658
-1.690359
-1.663202
-1.628277
-1.58778
-1.541101
-1.489113
-1.430516
-1.367487
-1.304721
-1.240523
-1.674866
-1.613937
-1.674832
-1.771782
-1.809884
-1.826702
-1.829064
-1.821176
-1.800307
-1.7676
-1.725945
-1.677122
-1.623273
-1.56405
-1.496022
-1.426899
-1.357131
-1.286248
-1.788595
-1.729534
-1.796551
-1.901472
-1.941431
-1.957508
-1.958603
-1.946594
-1.919944
-1.880543
-1.83141
-1.774052
-1.710527
-1.642697
-1.563858
-1.487851
-1.41029
-1.332006
-1.915078
-1.859586
-1.933747
-2.045739
-2.087611
-2.102522
-2.10159
-2.084068
-2.050251
-2.002776
-1.944765
-1.877979
-1.804182
-1.725373
-1.635256
-1.550062
-1.463799
-1.377336
-2.056407
-2.006584
-2.088828
-2.206929
-2.250801
-2.264178
-2.25937
-2.234963
-2.192177
-2.134984
-2.06643
-1.988585
-1.903524
-1.812851
-1.708821
-1.61309
-1.517137
-1.421662
-2.214682
-2.173486
-2.264747
-2.38789
-2.433535
-2.445008
-2.434166
-2.400833
-2.347245
-2.278302
-2.197172
-2.106301
-2.008126
-1.900555
-1.785
-1.676562
-1.569633
-1.464794
-2.391931
-2.363079
-2.465987
-2.593839
-2.637939
-2.647537
-2.62832
-2.583345
-2.516354
-2.433173
-2.337088
-2.230958
-2.117607
-1.992393
-1.862754
-1.740651
-1.621308
-1.506066
-2.59035
-2.579463
-2.697589
-2.829878
-2.871388
-2.874823
-2.844339
-2.784511
-2.702287
-2.600476
-2.486585
-2.362554
-2.231625
-2.087742
-1.940661
-1.803835
-1.671136
-1.537236
-2.810793
-2.829815
-2.962175
-3.096775
-3.135458
-3.130103
-3.084856
-3.006463
-2.903573
-2.780728
-2.645751
-2.500767
-2.349103
-2.176587
-2.01744
-1.864275
-1.716743
-1.564176
-3.056195
-3.12042
-3.264556
-3.400002
-3.435162
-3.417454
-3.352819
-3.250891
-3.122938
-2.974398
-2.814434
-2.644997
-2.469699
-2.268221
-2.091561
-1.920357
-1.756052
-1.579155
-3.284202
-3.468547
-3.616981
-3.743603
-3.776664
-3.741722
-3.651575
-3.52001
-3.361432
-3.181636
-2.992135
-2.794204
-2.59155
-2.360378
-2.161171
-1.970144
-1.77503
-1.591948
-3.566479
-3.888533
-4.036614
-4.145382
-4.160409
-4.106715
-3.984411
-3.815686
-3.623671
-3.402437
-3.177963
-2.94692
-2.696684
-2.4469
-2.223775
-2.010581
-1.788447
-1.594257
-3.868603
-4.382391
-4.526724
-4.611162
-4.602606
-4.518573
-4.354967
-4.144524
-3.903338
-3.635844
-3.370343
-3.100923
-2.810883
-2.526611
-2.276392
-2.038972
-1.782521
-1.582579
-3.783339
-4.950743
-5.093956
-5.149879
-5.109266
-4.983772
-4.766542
-4.499738
-4.202977
-3.88037
-3.566852
-3.251961
-2.893209
-2.594961
-2.315293
-2.030433
-1.768941
-1.554103
-3.473878
-5.61513
-5.749344
-5.774543
-5.690874
-5.509967
-5.223391
-4.886172
-4.521864
-4.133366
-3.763944
-3.397933
-2.982934
-2.647386
-2.334794
-1.994929
-1.735682
-1.505394
-2.273943
-6.371006
-6.511809
-6.499092
-6.356907
-6.104003
-5.729116
-5.30428
-4.857764
-4.390849
-3.956611
-3.504015
-3.053519
-2.678061
-2.311349
-1.95584
-1.677703
-1.432729
0.441187
-7.115338
-7.400689
-7.336548
-7.11703
-6.771703
-6.285842
-5.752746
-5.206817
-4.64718
-4.138205
-3.60227
-3.098631
-2.678543
-2.246012
-1.884926
-1.589912
-1.331976
-3.767954
-8.255147
-8.44077
-8.310209
-7.984236
-7.51756
-6.89342
-6.228111
-5.563284
-4.894644
-4.297384
-3.626295
-3.109153
-2.611941
-2.137808
-1.777791
-1.466917
-1.197273
-7.630225
-9.546365
-9.705221
-9.431755
-8.970138
-8.318959
-7.553622
-6.725385
-5.918638
-5.122405
-4.425626
-3.651482
-3.073696
-2.501379
-2.004861
-1.626271
-1.301173
-0.9990925
-9.273346
-11.12571
-11.1776
-10.73074
-10.09015
-9.235353
-8.263185
-7.236727
-6.260338
-5.316085
-4.42542
-3.616102
-2.972435
-2.287949
-1.817001
-1.420366
-1.055196
-0.7678335
-9.283556
-12.994
-12.91994
-12.2297
-11.35612
-10.24553
-9.016093
-7.748748
-6.542737
-5.451767
-4.383472
-3.508582
-2.716653
-2.048322
-1.558628
-1.11167
-0.7670348
-0.4856023
-8.769516
-15.30661
-14.96212
-14.02864
-12.78623
-11.3544
-9.803622
-8.243597
-6.759956
-5.506011
-4.201734
-3.296118
-2.341243
-1.725464
-1.181464
-0.7452463
-0.4026323
-0.1348416
-3.682565
-18.49854
-17.50056
-16.13752
-14.41026
-12.66544
-10.6124
-8.697563
-6.916474
-5.367865
-3.953381
-2.87263
-1.925736
-1.258879
-0.7041998
-0.2715885
0.03084632
0.2557666
0.05341774
-22.46075
-20.29562
-18.57403
-16.30505
-14.0203
-11.42511
-9.022828
-6.937403
-4.977583
-3.485089
-2.247728
-1.318483
-0.6225095
-0.09263015
0.2642306
0.5425536
0.7163834
-1.088273
-26.25999
-23.77974
-21.47747
-18.76274
-15.46324
-12.19236
-9.188303
-6.554823
-4.444583
-2.761402
-1.416036
-0.4853806
0.1724562
0.6373331
0.9133002
1.094496
1.221784
5.399589
-29.98754
-28.00214
-25.08598
-5.859314
-3.458986
-1.64594
-0.3349006
0.564349
1.125768
1.472815
1.641164
1.743585
1.760113
35.27697
-30.55474
-0.06872278
1.142545
1.830802
2.216285
2.404987
2.452052
2.417753
2.34579
45.00152
2.848139
3.353511
3.509276
3.428698
3.31407
3.118274
2.896148
5.088859
4.825958
4.480714
4.1273
3.77016
3.461034
6.092163
5.474988
4.905035
4.394924
3.952481
7.282949
6.328067
5.548827
4.906239
4.353592
8.080863
6.942108
6.009553
5.25966
4.640927
8.425595
7.237675
6.249054
5.457745
4.807764
8.359983
7.170101
6.230042
5.454079
4.817376
7.704719
6.790224
5.965589
5.285163
4.692613
7.481255
6.878238
6.159961
5.533344
4.951205
4.449811
56.65686
6.294649
5.848891
5.409765
4.95086
4.508647
4.107386
43.55193
-20.34687
4.607291
4.789474
4.756165
4.566058
4.30032
4.015458
3.713797
25.26716
-23.45294
-24.78324
0.8321872
2.281458
3.144287
3.552653
3.725688
3.730621
3.614529
3.458334
3.273538
-6.287322
-23.02847
-20.51599
-18.09287
-14.8424
-11.25667
-7.868476
-4.881661
-2.355671
-0.4795833
0.9572458
1.882956
2.476495
2.797773
2.954498
2.964708
2.915967
2.822109
3.949982
-18.82657
-16.98018
-15.09452
-12.81955
-10.16241
-7.471658
-5.022177
-3.046084
-1.286971
-0.03969857
0.9093364
1.567258
1.986791
2.240839
2.355016
2.405169
2.384665
7.181862
-15.59746
-14.30197
-12.79704
-10.93855
-9.070768
-6.953507
-5.052293
-3.354239
-1.918805
-0.7342148
0.1967173
0.8325687
1.294796
1.619214
1.822219
1.924916
1.967417
-5.701353
-12.45362
-12.02759
-10.86684
-9.50196
-8.031111
-6.393069
-4.85232
-3.44017
-2.264599
-1.164234
-0.4014033
0.3106521
0.7326887
1.085523
1.338568
1.503664
1.581173
-8.09364
-10.53679
-10.12618
-9.235226
-8.244987
-7.073662
-5.821498
-4.575595
-3.40743
-2.437315
-1.447295
-0.7808708
-0.1374594
0.326012
0.6678468
0.9372572
1.104925
1.24487
-6.870998
-8.710721
-8.540986
-7.838416
-7.134039
-6.23957
-5.257093
-4.254652
-3.333279
-2.47645
-1.6945
-1.021933
-0.4763737
0.005842297
0.3251796
0.5898926
0.8014682
0.9380311
-5.296777
-7.237294
-7.109776
-6.661687
-6.156244
-5.479138
-4.714077
-3.912398
-3.157345
-2.43724
-1.794793
-1.178955
-0.7208003
-0.2704501
0.06942287
0.3155993
0.5233726
0.692402
-2.434935
-5.95166
-5.89329
-5.652689
-5.297254
-4.803382
-4.201507
-3.565179
-2.949513
-2.34954
-1.834772
-1.267535
-0.8590597
-0.463235
-0.1307023
0.1075865
0.3009274
0.4662975
1.504017
-4.746102
-4.879078
-4.77592
-4.543698
-4.198102
-3.726051
-3.22462
-2.726286
-2.22972
-1.79332
-1.332565
-0.9448138
-0.6242077
-0.2869589
-0.05818866
0.1293787
0.28363
2.938059
-3.860597
-4.042921
-4.022957
-3.887214
-3.644841
-3.29077
-2.899383
-2.498861
-2.090599
-1.724109
-1.34314
-0.9909551
-0.7073142
-0.427957
-0.1879476
-0.009333874
0.1403701
-0.1325669
-3.220817
-3.348028
-3.383397
-3.319152
-3.157403
-2.896748
-2.59493
-2.275272
-1.941901
-1.635065
-1.331077
-1.008567
-0.7562708
-0.5294824
-0.2882729
-0.1197312
0.0230731
-0.2593135
-2.608884
-2.770151
-2.844746
-2.83216
-2.731383
-2.544138
-2.314113
-2.061306
-1.790829
-1.535333
-1.285048
-1.002517
-0.7808645
-0.579503
-0.374047
-0.2059673
-0.07167047
-1.352637
-2.059587
-2.297039
-2.391559
-2.417209
-2.361809
-2.231269
-2.058342
-1.860395
-1.642409
-1.430915
-1.220509
-0.9913121
-0.786969
-0.6091177
-0.4367115
-0.2725061
-0.1471682
-1.19844
-1.706087
-1.899822
-2.013352
-2.06493
-2.042982
-1.955495
-1.827109
-1.674529
-1.50006
-1.325947
-1.150185
-0.9616053
-0.7789702
-0.6225244
-0.477846
-0.3217886
-0.2062976
-1.097259
-1.39871
-1.578947
-1.69776
-1.767608
-1.768091
-1.713466
-1.618991
-1.50262
-1.365937
-1.223388
-1.076802
-0.9229812
-0.7615497
-0.6241433
-0.4964429
-0.3676169
-0.2516555
-1.025165
-1.127155
-1.283327
-1.42418
-1.515697
-1.532126
-1.502788
-1.437347
-1.347798
-1.241029
-1.125246
-1.003665
-0.8794849
-0.7367107
-0.617051
-0.5044732
-0.3937883
-0.2861157
-0.8907658
-0.9243075
-1.037393
-1.188604
-1.308137
-1.333065
-1.320693
-1.276944
-1.210157
-1.126387
-1.032915
-0.9325642
-0.8283049
-0.7074951
-0.6037868
-0.5050394
-0.4121531
-0.3134019
-0.766782
-0.7730002
-0.8777567
-1.034315
-1.132987
-1.163811
-1.16368
-1.136331
-1.08722
-1.022289
-0.9472803
-0.864845
-0.777956
-0.6808616
-0.5863714
-0.5000804
-0.4183286
-0.3349133
-0.6529334
-0.6472116
-0.7699156
-0.9007423
-0.9825055
-1.019721
-1.028448
-1.013502
-0.978048
-0.9285212
-0.8687467
-0.801388
-0.7291332
-0.6486604
-0.5663269
-0.4912324
-0.4192652
-0.3490351
-0.5590311
-0.5433723
-0.6755903
-0.7826445
-0.8604419
-0.8977527
-0.9122437
-0.9064717
-0.8823086
-0.8447569
-0.7974377
-0.7426973
-0.6827846
-0.6152112
-0.5449509
-0.4798683
-0.4167437
-0.3563495
-0.4851141
-0.4614694
-0.5787408
-0.6820466
-0.7568221
-0.7944823
-0.812611
-0.8135504