/*--------------------------------*- C++ -*----------------------------------*\
| =========                 |                                                 |
| \\      /  F ield         | OpenFOAM: The Open Source CFD Toolbox           |
|  \\    /   O peration     | Version:  2206                                  |
|   \\  /    A nd           | Website:  www.openfoam.com                      |
|    \\/     M anipulation  |                                                 |
\*---------------------------------------------------------------------------*/
FoamFile
{
    version     2.0;
    format      ascii;
    arch        "LSB;label=32;scalar=64";
    class       volScalarField;
    location    "1.8";
    object      pff;
}
// * * * * * * * * * * * * * * * * * * * * * * * * * * * * * * * * * * * * * //

dimensions      [1 -1 -2 0 0 0 0];

internalField   nonuniform List<scalar> 
13078
(
1.48776
79.87091
658.7038
689.5652
640.6976
581.3446
519.3369
122.0243
661.582
754.5152
702.7432
644.0431
583.3701
520.8668
840.4189
838.3142
777.4995
712.4922
649.4295
586.5547
523.045
949.3683
861.1788
787.7295
720.3707
654.636
589.9484
525.4635
957.5454
868.3524
794.1559
724.9813
658.9255
593.1613
527.8568
952.7594
869.3068
797.0784
727.9397
661.2155
595.8411
530.1143
947.8611
868.3133
798.2777
729.7554
662.8068
597.1134
532.0529
944.3679
866.8569
798.6745
730.6696
663.7212
598.0023
532.8316
941.9096
865.5244
798.367
730.9136
664.2084
598.5813
533.4018
940.1575
864.4314
797.9267
730.9281
664.4578
598.9544
533.8083
938.8671
863.5608
797.4987
730.8325
664.5722
599.2
534.1205
937.8475
862.8951
797.1168
730.694
664.6133
599.3712
534.3624
937.0467
862.342
796.7812
730.5568
664.6201
599.496
534.5644
936.3755
861.8851
796.4963
730.4454
664.6421
599.6018
534.7467
935.8051
861.4984
796.2765
730.7223
665.1337
599.7493
534.9171
935.2956
861.1647
796.1029
731.102
665.497
599.8756
535.0926
934.8183
860.8429
795.9097
731.0692
665.548
599.9859
535.2713
934.355
860.549
795.7327
731.024
665.5975
600.1046
535.4577
933.894
860.2573
795.5697
730.9822
665.671
600.2717
535.6459
933.4219
859.9753
795.4224
730.996
666.2575
601.0725
535.9124
932.9358
859.6722
795.2687
731.0178
666.961
601.7029
536.1841
932.4021
859.3539
795.0915
730.9795
667.1235
601.921
536.4224
931.8321
859.0156
794.9138
730.9597
667.2333
602.1724
536.7474
931.2024
858.6329
794.7154
730.9397
667.4249
603.0587
537.8848
930.497
858.2146
794.4889
730.9183
667.6235
604.1097
538.8044
929.7117
857.7436
794.2497
730.8934
667.7772
604.5212
539.2552
928.803
857.2031
793.9732
730.8647
667.9524
604.8761
539.7725
927.7867
856.6021
793.6647
730.831
668.166
605.3295
541.1067
926.6241
855.909
793.3185
730.798
668.4018
605.8227
542.6726
925.527
855.3474
792.9927
730.7746
668.6448
606.2681
543.4413
924.2201
854.64
792.62
730.7546
668.9227
606.7652
544.1755
922.6453
854.1251
792.7658
730.8609
669.2273
607.2955
544.9332
920.9669
853.6396
793.2081
731.795
669.8467
608.0751
545.8022
919.318
853.1634
793.9364
732.911
671.2891
609.8682
547.5984
918.0934
853.6216
796.1383
737.2221
676.7287
614.6349
551.6214
918.1938
857.0613
803.1708
747.7936
688.5213
625.0714
558.7443
921.5613
867.5953
819.4714
766.24
706.6066
637.3189
565.6349
932.0756
889.7972
846.2184
790.5475
725.2001
648.8197
566.8898
954.8017
923.4617
878.7669
815.4093
740.2895
657.006
560.9253
994.7185
965.1636
912.3453
838.9505
752.6855
658.6815
552.3014
1052.871
1010.902
951.7032
863.7902
767.4382
664.5902
551.3953
1132.228
1060.584
994.2267
901.2496
794.7073
680.9942
550.3622
1230.741
1116.568
1042.006
951.1455
846.821
701.3932
547.4593
1339.203
1165.82
1099.903
1013.269
890.0083
718.0153
540.0787
1432.669
1207.193
1155.497
1061.538
906.1598
721.4814
550.0507
1486.573
1242.964
1191.707
1066.656
899.043
719.974
554.9311
1532.596
1282.805
1181.791
1033.948
871.7647
705.7266
560.6451
1615.436
1319.002
1164.717
991.222
840.5996
688.5259
549.082
1707.706
1338.799
1153.337
962.9847
807.3032
661.1066
529.8206
1780.322
1352.96
1144.288
936.4401
770.0898
621.9023
504.3198
1809.636
1371.264
1141.2
899.7793
724.6089
578.1659
466.8672
1792.993
1370.328
1119.072
867.2204
687.4638
547.6838
432.6369
1749.172
1353.808
1079.651
831.4941
655.4411
524.507
411.12
1700.347
1336.455
1055.543
803.8373
630.3595
502.7012
403.9095
1651.664
1316.671
1033.896
784.3202
615.2158
492.7716
398.2457
1606.736
1300.591
1021.875
776.7907
609.6173
489.7763
396.5696
1593.826
1295.648
1022.295
779.7251
613.1537
492.7123
398.3452
1609.821
1299.356
1033.333
792.6818
625.129
501.2628
405.4967
1621.68
1299.936
1048.363
813.9432
644.5012
516.4247
418.7469
1625.722
1294.377
1061.942
839.2246
672.2823
541.8182
432.566
1623.406
1285.914
1085.157
864.5408
699.7105
561.8967
449.5463
1605.179
1269.183
1091.11
882.2474
724.6176
583.8917
474.7237
1551.804
1241.315
1088.199
910.9731
757.3842
614.2698
497.0152
1474.234
1228.625
1104.615
940.69
786.3717
635.4061
506.1657
1394.108
1219.964
1128.5
971.9992
808.0633
641.0743
504.1978
1339.724
1198.783
1139.016
996.8113
817.1489
636.5283
499.0797
1303.164
1164.724
1121.78
998.2445
819.3065
641.5471
496.1614
1246.458
1119.322
1065.852
971.156
819.0622
647.4701
502.3174
1168.357
1071.472
1010.493
927.0572
805.756
656.0175
507.0738
1093.096
1026.383
961.9708
879.896
781.7346
653.2667
519.582
1029.886
984.7656
924.6696
844.8628
753.7804
649.034
530.6983
981.0281
949.312
895.9026
820.6392
737.3284
646.4325
545.557
947.4411
915.4073
868.2963
803.92
728.9265
646.7717
552.1097
927.3302
886.0133
841.8525
784.8891
718.6958
645.8263
560.0207
918.1279
865.9763
818.3882
764.9139
704.9874
636.842
563.2137
915.2477
855.7793
802.8092
748.035
689.4217
625.2932
558.806
915.4483
852.2281
795.5851
738.1819
678.1292
616.0535
552.5982
916.991
851.8174
793.4415
733.6261
672.6159
610.6205
548.4091
918.9171
852.4603
793.07
731.8479
670.0476
608.5716
546.5068
920.8528
853.3879
792.9017
731.4442
669.5123
607.787
545.623
922.7559
854.073
792.641
730.7349
669.1523
607.2828
544.9671
924.4158
854.7229
792.6158
730.7517
668.9364
606.8146
544.2664
925.7481
855.4916
793.0744
730.8363
668.725
606.3577
543.5567
926.8498
856.0815
793.4411
730.9065
668.5085
605.9387
542.8095
928.0024
856.7875
793.8101
730.972
668.2923
605.4623
541.2471
929.0119
857.3866
794.1292
731.003
668.0919
605.0167
539.9054
929.9037
857.9208
794.407
731.0241
667.9131
604.655
539.3807
930.6626
858.3678
794.629
731.0385
667.7468
604.2306
538.9155
931.3506
858.7651
794.8289
731.061
667.5362
603.1582
537.9782
931.9571
859.1319
795.0153
731.0626
667.3346
602.2672
536.8257
932.5065
859.4464
795.1788
731.0662
667.2117
601.9965
536.4968
933.0047
859.7463
795.3412
731.079
667.0204
601.7643
536.2416
933.4653
860.0249
795.4669
731.0319
666.2903
601.1089
535.9484
933.9041
860.2817
795.5902
730.9945
665.6887
600.2883
535.666
934.3259
860.535
795.7169
731.023
665.6057
600.1133
535.4748
934.7397
860.7866
795.8646
731.0477
665.546
599.9975
535.2917
935.164
861.0596
796.027
731.0549
665.4846
599.8859
535.1109
935.5982
861.3331
796.1612
730.6485
665.1035
599.7523
534.9349
936.0667
861.6456
796.33
730.3539
664.6038
599.6035
534.7744
936.6122
862.0138
796.5627
730.449
664.5865
599.5125
534.6106
937.2454
862.4745
796.8469
730.5741
664.5938
599.4201
534.4465
938.0413
863.0175
797.1748
730.7097
664.5879
599.3037
534.2588
939.0392
863.684
797.5526
730.8395
664.5484
599.1441
534.0257
940.3142
864.532
797.9735
730.9321
664.4433
598.9092
533.7285
942.0321
865.6208
798.383
730.9276
664.21
598.5382
533.3136
944.4508
866.9379
798.3891
730.486
663.7056
597.9563
532.7325
947.92
868.3857
798.1145
729.5195
662.7575
597.0823
531.0321
952.7685
869.4351
797.1984
727.9935
661.3193
594.8824
529.0154
957.5305
868.518
794.327
725.3104
658.0609
592.141
526.7987
949.5667
861.4321
788.6243
719.6652
653.7495
589.0069
524.4058
845.9773
841.163
776.9435
711.8893
648.6989
585.6312
521.9781
136.3539
691.2851
763.1439
702.5495
642.9326
582.1764
519.6373
455.2484
387.0558
313.283
257.4876
183.651
110.7015
38.02346
456.6398
388.4978
314.7143
258.8253
184.7728
111.5924
39.68513
458.365
390.0737
316.3071
242.0684
185.8559
112.4607
40.61237
460.2409
391.7122
317.7321
261.8435
187.007
113.3424
41.47932
462.1278
393.4036
319.3103
263.3273
188.1693
114.2315
42.11654
463.9752
395.1091
320.9134
264.8428
189.3258
115.1221
42.7336
465.7396
396.7801
322.4995
266.2991
189.6725
116.0174
43.33132
467.2982
398.4092
324.0605
267.7269
189.9926
116.9115
43.91256
467.8381
399.8856
325.5437
269.1698
190.9327
117.7213
44.48911
468.2475
400.3417
326.9147
270.6057
191.8596
118.5362
45.05247
468.5762
400.6895
327.3171
271.9974
192.7892
119.3559
45.60677
468.8632
401.0101
327.6318
272.3103
193.727
120.1834
46.15493
469.1149
401.3095
327.9446
272.6005
193.8996
121.0362
46.69165
469.3531
401.6001
328.2587
272.9022
194.0935
121.2063
47.16302
469.5853
401.8987
328.5812
273.2123
194.3007
121.4091
47.0151
469.8245
402.2046
328.9123
273.5369
194.5256
121.629
46.89721
470.0659
402.5206
329.254
273.8881
194.8808
121.86
46.82457
470.316
402.8391
329.6205
274.4046
197.6323
122.1108
46.67259
470.576
403.1598
329.9983
274.7906
198.0782
122.3687
46.54466
470.8552
403.5011
330.3965
275.1987
198.429
122.6421
46.3834
471.1461
403.8598
330.808
275.63
198.7968
122.9286
46.12825
471.463
404.2367
331.2286
276.0913
199.1843
123.2311
45.93608
471.7908
404.6408
331.6895
276.5078
199.6921
123.5476
45.7279
472.2319
405.0784
332.2319
258.6949
202.5265
124.0365
45.52255
472.6826
405.5265
332.7062
277.5077
203.9504
124.4363
45.31255
473.1115
406.0083
333.2507
278.1696
204.5376
124.8179
45.08776
473.708
406.6013
333.8863
278.8161
205.1355
125.2713
44.81685
475.3534
407.2601
334.4851
279.4651
205.9334
128.7048
44.54893
476.5297
425.3729
353.3482
279.952
206.6824
130.0818
44.33219
477.3979
426.0158
354.1373
280.7029
207.4039
130.6679
44.10398
479.7006
428.3104
354.9184
281.4822
208.1932
133.2638
43.89603
481.3461
430.6235
355.723
282.3441
209.0813
136.3629
43.7198
482.4223
434.1263
356.8085
283.2612
210.0573
137.3178
43.89641
483.8355
435.7732
359.2802
284.1377
211.1027
138.9433
50.82972
486.3815
437.9516
361.9677
284.7666
211.9127
142.1445
58.82038
489.3966
441.0148
364.9749
283.2966
211.1912
148.5407
83.4844
488.1276
440.3327
357.8102
276.1365
207.993
155.9642
89.91869
478.3839
428.185
342.1828
268.4366
199.0806
142.9214
93.37268
460.3277
404.0877
318.48
248.5554
177.4533
126.6354
90.90042
438.9793
374.2374
282.7476
203.2975
162.5076
125.8042
79.40518
419.2419
339.3317
239.2652
179.0289
155.3715
125.0078
64.07719
413.2849
316.2763
220.1357
170.15
142.4389
120.3095
61.22579
404.6348
300.9808
202.4001
160.982
131.966
115.4926
55.55834
389.457
278.552
189.0902
146.3342
130.5337
105.8412
60.31252
389.8609
273.444
180.3943
135.6386
133.6825
100.5664
59.38715
394.3212
265.5746
161.8587
133.4193
137.0218
109.957
61.15837
410.2274
283.9054
155.392
134.877
143.8086
111.6395
85.08827
405.9707
293.358
154.454
135.8905
140.213
118.899
116.6151
398.6638
311.5105
162.6123
128.0092
135.9986
128.6814
128.378
378.0361
292.2259
156.7656
127.422
124.8794
131.6572
126.3633
343.1442
275.8453
158.7291
121.7872
127.5971
139.654
113.7859
308.7274
235.3133
147.7352
124.7046
121.899
144.3123
102.9806
282.5642
206.9026
136.9602
129.7445
111.2714
130.3268
100.937
261.9178
181.1204
134.2517
127.4138
116.4247
124.3108
137.9544
252.8278
168.6555
125.9508
130.4224
132.8446
130.7671
137.9892
253.2951
159.9994
122.5969
128.7398
135.814
141.4311
254.1154
152.7504
118.8785
129.3683
131.9305
136.6366
257.6528
148.8991
117.7812
128.7298
145.7636
167.2291
276.9218
159.867
128.8794
127.9451
144.6833
159.7215
201.9874
308.08
192.1514
144.6736
128.1084
122.3914
141.4901
119.5352
334.9316
229.9708
169.5186
133.8428
128.8439
150.0845
187.6505
357.5146
263.8002
186.2385
140.8546
134.8203
173.1197
163.9219
370.4853
276.5055
171.5039
135.682
151.6871
185.1554
159.1823
367.2897
270.4704
170.0438
141.2181
152.6758
202.5848
195.6776
359.0514
270.8182
165.1045
144.0852
167.3485
198.1948
163.6521
353.5932
259.8741
169.4567
146.413
167.0056
170.5568
133.5749
352.978
261.0549
173.4155
155.1858
151.2278
141.1597
93.78891
359.4309
261.2941
181.2294
161.7989
144.0344
119.5849
75.01501
369.2222
275.0632
194.5603
161.7972
148.0858
109.5391
63.96739
383.8321
291.8962
205.9535
173.8544
146.4481
116.8971
63.13132
401.5757
311.1739
231.566
178.7724
155.1525
143.8199
69.65781
423.6897
330.1487
251.7792
182.288
163.5039
147.7139
74.18138
449.4314
363.5399
290.4624
205.515
170.9875
143.7889
78.96493
470.938
392.0501
326.3646
249.6992
175.4009
136.5146
94.59335
484.3459
415.6358
346.8487
275.2573
198.8417
139.6819
98.61548
488.4525
430.2
359.937
279.045
208.316
149.5922
87.39602
487.0409
434.9416
365.5551
284.7091
210.8975
146.9557
75.12174
484.7067
435.0167
364.7084
285.2636
211.7601
140.8431
55.39026
483.274
434.2441
361.0569
284.6782
211.4283
138.8631
50.17344
482.4281
433.4335
357.8231
283.8639
210.5873
137.8435
46.93763
481.49
430.9018
356.4803
282.9315
209.624
136.8423
43.5498
479.858
428.6469
355.4881
282.0334
208.7003
135.5884
43.69408
477.5401
425.8715
354.6715
281.2008
207.8612
131.2502
43.92234
476.6796
424.885
353.8437
280.4564
207.1073
130.4002
44.16628
475.4933
407.3938
334.5998
279.3743
206.3837
129.8046
44.4006
473.8394
406.7259
333.9934
278.7946
205.558
126.615
44.65558
473.2317
406.1235
333.3651
278.1993
204.8696
125.043
44.93664
472.7882
405.623
332.8005
277.6359
204.2655
124.6394
45.1713
472.3164
405.1467
332.2623
277.0944
203.6085
124.2652
45.41769
471.8617
404.7062
331.7611
276.5686
200.6044
123.7755
45.62364
471.5242
404.2923
331.2839
276.0756
199.3849
123.388
45.83875
471.1989
403.8964
330.836
275.6187
198.9885
123.0784
46.06221
470.8906
403.5292
330.4147
275.1819
198.6081
122.784
46.25671
470.5984
403.1839
330.0118
274.7725
198.2513
122.5033
46.4477
470.3358
402.8577
329.6372
274.3797
197.9152
122.2384
46.60534
470.0824
402.5367
329.2719
273.9242
196.4115
121.9831
46.73621
469.8431
402.2236
328.9296
273.5043
194.6453
121.7427
46.86357
469.6134
401.9281
328.6054
273.165
194.4175
121.5161
46.9904
469.3945
401.6432
328.2936
272.8347
194.2022
121.3034
47.02945
469.1761
401.3691
327.9897
272.5215
194.0054
121.1069
46.86603
468.9554
401.0935
327.6964
272.2116
193.8163
120.5994
46.32721
468.7152
400.8057
327.4027
271.9062
193.2725
119.7689
45.77533
468.4476
400.5003
327.0241
271.0494
192.3506
118.945
45.21105
468.1186
400.0978
325.6852
269.6145
191.4282
118.129
44.6514
467.6785
398.6882
324.2435
268.1678
190.5081
117.316
44.07372
466.2455
397.1287
322.7208
266.7078
189.6248
116.4671
43.4958
464.6078
395.5227
321.167
265.3159
189.9047
115.5713
42.91319
462.8678
393.8593
319.5901
263.844
188.7866
114.6785
42.31514
461.0258
392.1553
318.0004
262.3856
187.6345
113.791
41.69917
459.1003
390.4405
316.4156
260.9384
186.4853
112.9066
40.98153
457.1984
388.7689
314.8564
259.5338
185.3423
112.0266
40.06632
455.3699
387.1087
313.3213
258.1715
184.2099
111.1464
38.83049
0
0
0
0
0
0
0
0
0
0
0
0
0
0
0
0
0
0
0
0
0
0
0
0
0
0
0
0
0
0
0
0
0
0
0
0
0
0
0
0
0
0
0
0
0
0
0
0
0
0
0
0
0
0
0
0
0
0
0
0
0
0
0
0
0
0
0
0
0
0
0
0
0
0
0
0
0
0
0
0
0
0
0
0
0
0
0
0
0
0
0
0
0
0
0
0
0
0
0
0
0
0
0
0
0
0
0
0
0
0
0
0
0
0
0
0
0
0
0
0
0
0
0
0
0
0
0
0
0
0
0
0
0
0
0
0
0
0
0
0
0
0
0
0
0
0
0
0
0
0
0
0
0
0
0
0
0
0
0
0
0
0
0
0
0
0
0
0
0
0
0
0
0
0
0
0
0
0
0
0
0
0
0
0
0
0
0
0
0
0
0
0
0
0
0
0
0
0
0
0
0
0
0
0
0
0
0
0
0
0
0
0
0
0
0
0
0
0
0
0
0
0
0
0
0
0
0
0
0
0
0
0
0
0
0
0
0
0
0
0
0
0
0
0
0
0
0
0
0
0
0
0
0
0
0
0
0
0
0
0
0
0
0
0
0
0
0
0
0
0
0
0
0
0
0
0
0
0
0
0
0
0
0
0
0
0
0
0
0
0
0
0
0
0
0
0
0
0
0
0
0
0
0
0
0
0
0
0
0
0
0
0
0
0
0
0
0
0
0
0
0
0
0
0
0
0
0
0
0
0
0
0
0
0
0
0
0
0
0
0
0
0
0
0
0
0
0
0
0
0
0
0
0
0
0
0
0
0
0
0
0
0
0
0
0
0
0
0
0
0
0
0
0
0
0
0
0
0
0
0
0
0
0
0
0
0
0
0
0
0
0
0
0
0
0
0
0
0
0
0
0
0
0
0
0
0
0
0
0
0
0
0
0
0
0
0
0
0
0
0
0
0
0
0
0
0
0
0
0
0
0
0
0
0
0
0
0
0
0
0
0
0
0
0
0
0
0
0
0
0
0
0
0
0
0
0
0
0
0
0
0
0
0
0
0
0
0
0
0
0
0
0
0
0
0
0
0
0
0
0
0
0
0
0
0
0
0
0
0
0
0
0
0
0
0
0
0
0
0
0
0
0
0
0
0
0
0
0
0
0
0
0
0
0
0
0
0
0
0
0
0
0
0
0
0
0
0
0
0
0
0
0
0
0
0
0
0
0
0
0
0
0
0
0
0
0
0
0
0
0
0
0
0
0
0
0
0
0
0
0
0
0
0
0
0
0
0
0
0
0
0
0
0
0
0
0
0
0
0
0
0
0
0
0
0
0
0
0
0
0
0
0
0
0
0
0
0
0
0
0
0
0
0
0
0
0
0
0
0
0
0
0
0
0
0
0
0
0
0
0
0
0
0
0
0
0
0
0
0
0
0
0
0
0
0
0
0
0
0
0
0
0
0
0
0
0
0
0
0
0
0
0
0
0
0
0
0
0
0
0
0
0
0
0
0
0
0
0
0
0
0
0
0
0
0
0
0
0
0
0
0
0
0
0
0
0
0
0
0
0
0
0
0
0
0
0
0
0
0
0
0
0
0.0005444777
0
0
0
0
0
0
0
0
0
0
0
0
0
0
0
0
0
1.304517
0
0
0
0
0
0
0
0
0
0
0
0
0
0
0
0
0
3.257671
0
0
0
0
0
0
0
0
0
0
0
0
0
0
0
0
0
5.614059
0
0
0
0
0
0
0
0
0
0
0
0
0
0
0
0
0
8.040049
0
0
0
0
0
0
0
0
0
0
0
0
0
0
0
0
0
11.74846
0
0
0
0
0
0
0
0
0
0
0
0
0
0
0
0
0
15.3809
0
0
0
0
0
0
0
0
0
0
0
0
0
0
0
0
0
28.02174
0
0
0
0
0
0
0
0
0
0
0
0
0
0
0
0
0
47.21259
0
0
0
0
0
0
0
0
0
0
0
0
0
0
0
0
0
62.78156
0
0
0
0
0
0
0
0
0
0
0
0
0
0
0
0
0
85.66383
0
0
0
0
0
0
0
0
0
0
0
0
0
94.86538
0.8168874
0
0
0
0
0
0
0
0
82.44214
0
0
0
0
0
0
0
0
0
0
0
0
0
0
0
0
0
0
0
0
0
0
0
0
0
0
0
0
0
0
0
0
0
0
0
0
0
0
0
0
0
0
0
0
0
0
0
0
0
125.3535
0
0
0
0
0
0
101.3896
1.897322
0
0
0
0
0
0
0
87.22364
0
0
0
0
0
0
0
0
0
0
0
54.85167
0
0
0
0
0
0
0
0
0
0
0
0
0
0
0
0
0
35.45285
0
0
0
0
0
0
0
0
0
0
0
0
0
0
0
0
0
29.95097
0
0
0
0
0
0
0
0
0
0
0
0
0
0
0
0
0
19.88424
0
0
0
0
0
0
0
0
0
0
0
0
0
0
0
0
0
10.85349
0
0
0
0
0
0
0
0
0
0
0
0
0
0
0
0
0
10.00777
0
0
0
0
0
0
0
0
0
0
0
0
0
0
0
0
0
7.60682
0
0
0
0
0
0
0
0
0
0
0
0
0
0
0
0
0
3.856453
0
0
0
0
0
0
0
0
0
0
0
0
0
0
0
0
0
2.046024
0
0
0
0
0
0
0
0
0
0
0
0
0
0
0
0
0
0.2820439
0
0
0
0
0
0
0
0
0
0
0
0
0
0
0
0
0
0
0
0
0
0
0
0
0
0
0
0
0
0
0
0
0
0
0
0
0
0
0
0
0
0
0
0
0
0
0
0
0
0
0
0
0
0
0
0
0
0
0
0
0
0
0
0
0
0
0
0
0
0
0
0
0
0
0
0
0
0
0
0
0
0
0
0
0
0
0
0
0
0
0
0
0
0
0
0
0
0
0
0
0
0
0
0
0
0
0
0
0
0
0
0
0
0
0
0
0
0
0
0
0
0
0
0
0
0
0
0
0
0
0
0
0
0
0
0
0
0
0
0
0
0
0
0
0
0
0
0
0
0
0
0
0
0
0
0
0
0
0
0
0
0
0
0
0
0
0
0
0
0
0
0
0
0
0
0
0
0
0
0
0
0
0
0
0
0
0
0
0
0
0
0
0
0
0
0
0
0
0
0
0
0
0
0
0
0
0
0
0
0
0
0
0
0
0
0
0
0
0
0
0
0
0
0
0
0
0
0
0
0
0
0
0
0
0
0
0
0
0
0
0
0
0
0
0
0
0
0
0
0
0
0
0
0
0
0
0
0
0
0
0
0
0
0
0
0
0
0
0
0
0
0
0
0
0
0
0
0
0
0
0
0
0
0
0
0
0
0
0
0
0
0
0
0
0
0
0
0
0
0
0
0
0
0
0
0
0
0
0
0
0
0
0
0
0
0
0
0
0
0
0
0
0
0
0
0
0
0
0
0
0
0
0
0
0
0
0
0
0
0
0
0
0
0
0
0
0
0
0
0
0
0
0
0
0
0
0
0
0
0
0
0
0
0
0
0
0
0
0
0
0
0
0
0
0
0
0
0
0
0
0
0
0
0
0
0
0
0
0
0
0
0
0
0
0
0
0
0
0
0
0
0
0
0
0
0
0
0
0
0
0
0
0
0
0
0
0
0
0
0
0
0
0
0
0
0
0
0
0
0
0
0
0
0
0
0
0
0
0
0
0
0
0
0
0
0
0
0
0
0
0
0
0
0
0
0
0
0
0
0
0
0
0
0
0
0
0
0
0
0
0
0
0
0
0
0
0
0
0
0
0
0
0
0
0
0
0
0
0
0
0
0
0
0
0
0
0
0
0
0
0
0
0
0
0
0
0
0
0
0
0
0
0
0
0
0
0
0
0
0
0
0
0
0
0
0
0
0
0
0
0
0
0
0
0
0
0
0
0
0
0
0
0
0
0
0
0
0
0
0
0
0
0
0
0
0
0
0
0
0
0
0
0
0
0
0
0
0
0
0
0
0
0
0
0
0
0
0
0
0
0
0
0
0
0
0
0
0
0
0
0
0
0
0
0
0
0
0
0
0
0
0
0
0
0
0
0
0
0
0
0
0
0
0
0
0
0
0
0
0
0
0
0
0
0
0
0
0
0
0
0
0
0
0
0
0
0
0
0
0
0
0
0
0
0
0
0
0
0
0
0
0
0
0
0
0
0
0
0
0
0
0
0
0
0
0
0
0
0
0
0
0
0
0
0
0
0
0
0
0
0
0
0
0
0
0
0
0
0
0
0
0
0
0
0
0
0
0
0
0
0
0
0
0
0
0
0
0
0
0
0
0
0
0
0
0
0
0
0
0
0
0
0
0
0
0
0
0
0
0
0
0
0
0
0
0
0
0
0
0
0
0
0
0
0
0
0
0
0
0
0
0
0
0
0
0
0
0
0
0
0
0
0
0
0
0
0
0
0
0
0
0
0
0
0
0
0
0
0
0
0
0
0
0
0
0
0
0
0
0
0
0
0
0
0
0
0
0
0
0
0
0
0
0
0
0
0
0
0
0
0
0
0
0
0
0
0
0
0
0
0
0
0
0
0
0
0
0
0
0
0
0
0
0
0
0
0
0
0
0
0
0
0
0
0
0
0
0
0
0
0
0
0
0
0
0
0
0
0
0
0
0
0
0
0
0
0
0
0
0
0
0
0
0
0
0
0
0
0
0
0
0
0
0
0
0
0
0
0
0
0
0
0
0
0
0
0
0
0
0
0
0
0
0
0
0
0
0
0
0
0
0
0
0
0
0
0
0
0
0
0
0
0
0
0
0
0
0
0
0
0
0
0
0
0
0
0
0
0
0
0
0
0
0
0
0
0
0
0
0
0
0
0
0
0
0
0
0
0
0
0
0
0
0
0
0
0
0
0
0
0
0
0
0
0
0
0
0
0
0
0
0
0
0
0
0
0
0
0
0
0
0
0
0
0
0
0
0
0
0
0
0
0
0
0
0
0
0
0
0
0
0
0
0
0
0
0
0
0
0
0
0
0
0
0
0
0
0
0
0
0
0
0
0
0
0
0
0
0
0
0
0
0
0
0
0
0
0
0
0
0
0
0
0
0
0
0
0
0
0
0
0
0
0
0
0
0
0
0
0
0
0
0
0
0
0
0
0
0
0
0
0
0
0
0
0
0
0
0
0
0
0
0
0
0
0
0
0
0
0
0
0
0
0
0
0
0
0
0
0
0
0
0
0
0
0
0
0
0
0
0
0
0
0
0
0
0
0
0
0
0
0
0
0
0
0
0
0
0
0
0
0
0
0
0
0
0
0
0
0
0
0
0
0
0
0
0
0
0
0
0
0
0
0
0
0
0
0
0
0
0
0
0
0
0
0
0
0
0
0
0
0
0
0
0
0
0
0
0
0
0
0
0
0
0
0
0
0
0
0
0
0
0
0
0
0
0
0
0
0
0
0
0
0
0
0
0
0
0
0
0
0
0
0
0
0
0
0
0
0
0
0
0
0
0
0
0
0
0
0
0
0
0
0
0
0
0
0
0
0
0
0
0
0
0
0
0
0
0
0
0
0
0
0
0
0
0
0
0
0
0
0
0
0
0
0
0
0
0
0
0
0
0
0
0
0
0
0
0
0
0
0
0
0
0
0
0
0
0
0
0
0
0
0
0
0
0
0
0
0
0
0
0
0
0
0
0
0
0
0
0
0
0
0
0
0
0
0
0
0
0
0
0
0
0
0
0
0
0
0
0
0
0
0
0
0
0
0
0
0
0
0
0
0
0
0
0
0
0
0
0
0
0
0
0
0
0
0
0
0
0
0
0
0
0
0
0
0
0
0
0
0
0
0
0
0
0
0
0
0
0
0
0
0
0
0
0
0
0
0
0
0
0
0
0
0
0
0
0
0
0
0
0
0
0
0
0
0
0
0
0
0
0
0
0
0
0
0
0
0
0
0
0
0
0
0
0
0
0
0
0
0
0
0
0
0
0
0
0
0
0
0
0
0
0
0
0
0
0
0
0
0
0
0
0
0
0
0
0
0
0
0
0
0
0
0
0
0
0
0
0
0
0
0
0
0
0
0
0
0
0
0
0
0
0
0
0
0
0
0
0
0
0
0
0
0
0
0
0
0
0
0
0
0
0
0
0
0
0
0
0
0
0
0
0
0
0
0
0
0
0
0
0
0
0
0
0
0
0
0
0
0
0
0
0
0
0
0
0
0
0
0
0
0
0
0
0
0
0
0
0
0
0
0
0
0
0
0
0
0
0
0
0
0
0
0
0
0
0
0
0
0
0
0
0
0
0
0
0
0
0
0
0
0
0
0
0
0
0
0
0
0
0
0
0
0
0
0
0
0
0
0
0
0
0
0
0
0
0
0
0
0
0
0
0
0
0
0
0
0
0
0
0
0
0
0
0
0
0
0
0
0
0
0
0
0
0
0
0
0
0
0
0
0
0
0
0
0
0
0
0
0
0
0
0
0
0
0
0
0
0
0
0
0
0
0
0
0
0
0
0
0
0
0
0
0
0
0
0
0
0
0
0
0
0
0
0
0
0
0
0
0
0
0
0
0
0
0
0
0
0
0
0
0
0
0
0
0
0
0
0
0
0
0
0
0
0
0
0
0
0
0
0
0
0
0
0
0
0
0
0
0
0
0
0
0
0
0
0
0
0
0
0
0
0
0
0
0
0
0
0
0
0
0
0
0
0
0
0
0
0
0
0
0
0
0
0
0
0
0
0
0
0
0
0
0
0
0
0
0
0
0
0
0
0
0
0
0
0
0
0
0
0
0
0
0
0
0
0
0
0
0
0
0
0
0
0
0
0
0
0
0
0
0
0
0
0
0
0
0
0
0
0
0
0
0
0
0
0
0
0
0
0
0
0
0
0
0
0
0
0
0
0
0
0
0
0
0
0
0
0
0
0
0
0
0
0
0
0
0
0
0
0
0
0
0
0
0
0
0
0
0
0
0
0
0
0
0
0
0
0
0
0
0
0
0
0
0
0
0
0
0
0
0
0
0
0
0
0
0
0
0
0
0
0
0
0
0
0
0
0
0
0
0
0
0
0
0
0
0
0
0
0
0
0
0
0
0
0
0
0
0
0
0
0
0
0
0
0
0
0
105.6097
101.2906
95
135.6588
91.4964
181.9734
139.6407
192.8111
209.1104
141.3178
216.6533
206.0845
149.1123
223.3896
162.5972
176.6083
229.9012
184.2908
158.1943
156.8654
160.7016
0
0
0
0
0
0
0
0
0
0
0
0
0
0
0
0
0
0
0
0
0
0
0
0
0
0
0
0.6496456
0
0
68.52364
99.22994
0
0
0
0
0
0
0
0
0
0
0
0
0
0
0
0
0
0
0
0
0
0
0
0
0
0
0
0
0
0
0
0
44.37483
85.34117
0
0
0
0
0.105465
0
0
0
0
0
0
0
0
0
0
0
0
0
0
0
0
0
0
0
0
0
0
0
0
0
0
0
0
0
0
0
220.5764
221.2372
258.1558
146.9562
147.4135
184.2117
74.98367
75.42323
111.1582
0.2224932
0.4832531
38.93599
221.9574
222.5706
259.4602
147.8608
148.2971
185.3013
75.87101
76.30785
112.0355
0.8041479
0.8408575
40.15188
148.7282
149.1717
186.2869
76.75606
77.1967
112.8991
0.881229
0.9190025
41.0717
224.7226
225.4314
262.1666
149.6387
150.1001
187.6107
77.64559
78.09807
113.7919
0.9528366
0.9819101
41.80055
226.1041
226.7794
263.6929
150.5655
151.0086
188.7523
78.55136
79.00745
114.6796
1.005782
1.024291
42.42895
151.4693
151.9199
189.8581
79.44843
79.83509
115.568
1.037599
1.045887
43.03432
228.252
228.141
266.59
152.3249
152.7418
189.5886
80.22356
80.6165
116.4666
1.050521
1.055714
43.62543
153.1989
153.6459
190.483
81.01108
81.40613
117.3211
1.056893
1.072281
44.1985
229.8837
230.4673
269.5185
154.1108
154.5537
191.4108
81.80842
82.20442
118.1363
1.111856
1.135857
44.76546
231.0612
231.6402
270.9714
155.0153
155.4256
192.3276
82.60766
83.01073
118.9513
1.15977
1.178344
45.33387
232.2315
232.7883
271.8421
155.8486
156.2624
193.2583
83.41938
83.82648
119.7743
1.198577
1.222781
45.88027
232.8827
233.0071
272.166
156.6894
157.1228
193.8144
84.2399
84.65127
120.6035
1.247979
1.273006
46.42766
233.139
233.2555
272.4856
157.2017
157.2892
194.0042
85.06842
85.50825
121.1063
1.297745
1.322324
46.94885
233.3885
233.5151
272.8078
157.3875
157.4836
194.1968
85.58103
85.68568
121.3071
1.341268
1.463405
47.10059
233.6503
233.7889
273.1259
157.5901
157.6951
194.4051
85.79885
85.90485
121.5202
1.674004
1.719497
47.04303
233.9184
234.0761
273.4642
157.8047
157.9195
194.6279
86.02882
86.13841
121.7418
1.740523
1.783975
46.89929
234.3085
235.6412
273.9087
158.0307
158.249
196.4127
86.26104
86.38263
121.9785
1.844003
1.897372
46.75676
237.1717
237.5169
274.3774
158.4488
158.5773
197.92
86.5088
86.64315
122.2329
1.957669
2.0167
46.61893
237.7335
237.926
274.7634
158.7088
158.8459
198.2473
86.77512
86.91631
122.5003
2.080229
2.143478
46.4669
238.1383
238.3581
275.1621
158.9831
159.1297
198.6016
87.06143
87.20724
122.781
2.19997
2.258983
46.26583
238.5665
238.8081
275.5904
159.2734
159.4307
198.9736
87.36141
87.51181
123.0842
2.31678
2.37515
46.06832
239.0365
239.3095
276.0252
159.5861
159.75
199.3816
87.67688
87.83286
123.3888
2.436658
2.496578
45.85039
239.5938
239.7448
276.5649
159.9467
161.0527
200.6021
87.9983
88.16674
123.7627
2.56318
2.626833
45.64
162.8193
163.7548
203.4219
88.33062
88.50549
124.2452
2.695829
2.76692
45.42192
240.8486
241.0707
277.4463
164.0167
164.2596
204.2513
88.67655
88.85718
124.6207
2.838889
2.910695
45.19026
241.3061
241.5921
278.1241
164.5024
164.751
204.8205
89.04197
89.23072
125.0196
2.985768
3.063808
44.94802
241.8997
242.2098
278.7049
165.1266
166.2313
205.5075
89.42244
89.68807
126.5765
3.14318
3.226367
44.6775
242.5243
242.8733
279.2716
168.3544
169.6181
206.2967
89.99155
90.24384
129.7676
3.310851
3.398092
44.4316
390.1116
390.3572
424.7557
316.8517
317.1924
353.7303
243.2205
243.606
280.3301
170.0695
170.4357
207.0487
90.44966
90.65817
130.3666
3.485694
3.57976
44.21453
390.632
390.9773
425.734
317.4828
317.8463
354.5146
243.9878
244.3759
281.1083
170.8103
171.1978
207.8019
90.86871
91.21305
131.2341
3.675314
3.774429
43.98558
391.5105
392.001
428.4684
318.2461
318.6437
355.3217
244.8117
245.229
281.9184
171.7
172.2269
208.6378
93.5257
95.35342
135.5375
3.875383
3.980724
43.78451
392.738
394.3403
430.7076
319.0706
319.4917
356.2921
245.7045
246.1782
282.7943
172.684
173.1465
209.5623
95.84699
96.14557
136.8104
4.083438
4.191027
43.70064
395.6622
396.6781
433.3018
319.9092
320.3211
357.6085
246.655
247.1388
283.6901
173.6386
174.188
210.5453
96.8207
99.82191
138.0267
4.300278
4.429846
47.57767
398.3981
400.61
434.3131
320.8718
321.4072
360.7711
247.5878
248.0235
284.4922
174.7754
175.5044
211.5854
103.1289
105.7741
140.2292
4.563816
4.876435
54.28649
401.674
402.2077
434.9674
322.3739
323.2321
364.306
248.1626
247.6432
284.5205
176.367
177.382
211.7842
109.0465
112.1799
144.6077
5.26543
5.344026
60.95985
401.6961
400.4549
432.609
322.5476
322.0769
363.1533
246.0827
244.1401
280.3555
178.8017
180.1607
210.1588
116.1836
126.6222
153.299
6.435627
7.842416
81.81158
396.2175
390.0972
421.1419
320.4853
315.1802
351.0491
241.5689
236.9264
270.9963
179.18
174.2663
204.7435
134.3903
133.0259
151.9126
8.253933
8.670706
91.45756
380.4111
369.4344
399.7739
307.3089
295.2101
331.151
228.5326
217.3127
262.3852
165.6974
156.6694
189.3741
124.9145
113.8427
132.9913
20.37734
28.29385
94.591
355.5865
341.8043
373.3308
282.2387
263.2737
303.1291
209.9074
196.8561
224.9232
152.5947
146.9572
162.3718
104.5459
98.68091
123.8124
32.12611
38.99253
86.94514
324.856
305.7191
346.1372
239.3853
216.7952
259.038
181.5929
167.6327
186.4596
146.6002
141.2552
160.1085
96.18153
97.18763
128.4638
43.79251
46.84548
68.78603
285.188
273.4742
323.7116
202.9808
196.2308
228.0645
163.2602
159.659
174.8768
138.6641
141.01
149.5407
97.64272
96.9735
125.0819
50.29845
53.75892
62.93695
264.6703
262.1176
318.5311
190.5565
184.0936
213.1751
153.4685
149.1613
166.1669
134.176
128.7323
136.9133
94.09809
90.05624
116.3335
58.02025
57.21588
56.92878
249.8766
241.7599
299.3618
175.7165
169.6597
193.9236
145.2431
142.852
153.6714
124.4573
122.1105
131.9848
93.52816
95.42248
108.6095
60.06906
65.51532
55.21742
231.6966
225.3356
291.2433
164.7714
156.4363
181.5438
135.8991
131.7892
139.5644
120.347
127.6735
134.4627
99.90313
96.76613
103.077
70.51218
77.49547
61.43825
226.641
219.818
291.0289
153.2767
147.2991
171.8686
128.5001
132.9843
135.9463
129.1005
135.5072
138.0995
96.16029
95.32263
105.9053
74.93465
77.84877
59.02226
208.919
219.5832
301.475
140.3243
136.9544
161.3493
137.871
146.5319
136.1098
131.1692
125.6849
138.7489
102.1986
104.817
110.0898
82.45391
85.47209
65.64275
212.9368
216.11
307.9019
132.6907
136.6103
156.878
145.7512
142.8134
132.6589
128.0225
133.8366
142.7288
117.8193
119.5871
118.2387
95.63941
96.6352
99.57342
210.8595
219.3029
317.6563
137.0082
134.662
154.8589
139.7019
137.2234
133.3186
133.5559
136.0346
137.485
114.7034
118.0883
129.6824
93.95739
115.4783
121.1895
226.5421
228.1307
299.1199
135.5212
137.8372
161.2901
131.9846
126.1076
129.0324
130.609
131.9328
129.6045
125.5255
124.923
129.505
118.8774
126.0591
135.7238
223.7445
214.3434
267.6218
132.6755
126.7062
152.5438
127.6831
126.3913
122.6046
128.7489
131.0522
128.1063
125.0635
132.7961
137.4043
133.5081
122.4121
120.0987
205.4914
194.2608
230.4194
128.301
132.5734
158.1413
121.371
120.7324
122.1971
139.0869
136.9125
125.6585
132.8532
123.7835
147.256
111.8882
105.5305
110.4921
177.9091
168.4019
193.8811
131.3373
126.6073
145.0628
122.0457
117.499
122.0894
134.4449
132.1816
119.3359
126.0547
125.136
135.0856
116.2975
78.28514
120.5747
156.2423
144.7557
167.4916
127.8654
130.6848
132.662
123.2305
130.0458
130.9293
121.1402
116.8531
113.0927
118.1198
112.304
119.3842
140.9939
138.448
152.2234
126.6648
128.2101
129.9648
129.3353
132.4189
130.9543
117.5329
133.2463
129.9716
116.766
118.9287
124.6044
138.2572
135.4172
150.1073
125.8482
124.5806
122.6393
126.0647
130.3425
130.5382
134.8977
140.2914
139.3282
135.3173
132.8802
156.2597
123.8954
122.6798
120.2325
130.6563
135.6999
130.8405
142.0358
138.6984
134.5869
132.3628
133.363
163.8691
120.159
117.6885
118.6999
136.8938
135.6483
125.0562
133.0262
140.4474
137.9009
133.1736
136.4773
174.6409
118.1492
121.2274
121.8751
135.5826
131.422
129.6884
151.1434
153.9635
141.9747
141.7109
150.806
199.9338
122.2746
122.5106
138.436
136.9993
130.2544
122.5185
153.0111
138.0899
128.668
171.6104
157.6208
148.7525
163.7092
181.0005
236.5449
132.5315
138.2653
156.3237
132.2689
129.1739
132.6917
132.6344
130.2167
120.0149
146.0553
163.4358
143.0571
199.5697
210.2616
263.5657
143.8476
154.52
175.8286
129.2692
134.3855
144.0345
136.2353
138.2385
128.7901
170.7308
179.3397
162.3623
130.5654
168.2016
160.0239
224.8616
229.1705
282.2663
161.9281
156.4417
184.3278
132.3062
132.4729
137.2414
149.0549
165.441
143.4401
169.9953
175.5372
178.5226
143.5504
138.8346
152.8129
219.9157
210.5612
265.0283
147.9313
148.5256
170.6583
135.4847
140.8672
138.279
169.8647
169.0552
152.8964
173.842
182.1907
191.0225
140.8151
136.6932
179.186
210.7926
208.9929
258.6741
149.9083
149.2797
169.8867
142.0033
144.7701
141.8328
181.1557
186.533
165.1861
193.5889
196.218
206.4882
129.1895
103.1968
182.3599
207.6307
200.5867
243.7951
147.9551
151.6454
162.3446
153.7075
151.7084