/*--------------------------------*- C++ -*----------------------------------*\
| =========                 |                                                 |
| \\      /  F ield         | OpenFOAM: The Open Source CFD Toolbox           |
|  \\    /   O peration     | Version:  2206                                  |
|   \\  /    A nd           | Website:  www.openfoam.com                      |
|    \\/     M anipulation  |                                                 |
\*---------------------------------------------------------------------------*/
FoamFile
{
    version     2.0;
    format      ascii;
    arch        "LSB;label=32;scalar=64";
    class       surfaceScalarField;
    location    "1.8";
    object      phi.b;
}
// * * * * * * * * * * * * * * * * * * * * * * * * * * * * * * * * * * * * * //

dimensions      [0 3 -1 0 0 0 0];

oriented        oriented;

internalField   nonuniform List<scalar> 
26037
(
1.408098e-10
6.625226e-11
6.911312e-11
9.955648e-12
2.792331e-11
-3.511882e-12
8.437625e-12
-1.053228e-11
-2.639679e-12
-1.182338e-11
-1.11534e-11
-1.252744e-11
-1.306096e-11
-1.822515e-11
9.710621e-11
1.248292e-10
5.649084e-11
4.370971e-11
2.664323e-11
1.027268e-11
9.2761e-12
-2.425844e-12
-2.140096e-12
-7.035847e-12
-1.088906e-11
-9.385355e-12
-1.077296e-11
-1.808668e-11
4.43375e-11
7.302024e-11
3.553054e-11
3.771551e-11
2.083368e-11
1.693958e-11
8.237645e-12
4.25798e-12
-2.077898e-12
-2.089604e-12
-1.062771e-11
-5.694918e-12
-7.980896e-12
-1.78856e-11
2.319686e-11
5.23219e-11
2.317225e-11
3.476163e-11
1.586644e-11
2.059583e-11
6.397982e-12
9.873174e-12
-2.569945e-12
2.890786e-12
-1.067683e-11
-1.569267e-12
-4.686923e-12
-1.78636e-11
1.441886e-11
4.510247e-11
1.576887e-11
3.451588e-11
1.117191e-11
2.411962e-11
4.056515e-12
1.47512e-11
-3.645473e-12
7.801682e-12
-1.123555e-11
2.908297e-12
-9.502612e-13
-1.827224e-11
9.030406e-12
4.213167e-11
1.016073e-11
3.536097e-11
6.882237e-12
2.758099e-11
1.078631e-12
1.947329e-11
-5.771879e-12
1.271682e-11
-1.243245e-11
7.148161e-12
3.130879e-12
-1.926217e-11
5.291817e-12
4.159539e-11
5.578235e-12
3.698106e-11
3.143171e-12
3.068106e-11
-2.229406e-12
2.43844e-11
-8.407924e-12
1.760338e-11
-1.501878e-11
1.183224e-11
6.697451e-12
-2.091232e-11
2.591178e-12
4.272528e-11
1.761164e-12
3.935864e-11
-1.122871e-12
3.430518e-11
-5.862065e-12
2.893497e-11
-1.159815e-11
2.241314e-11
-1.786007e-11
1.655393e-11
1.105329e-11
-2.424062e-11
5.187159e-13
4.516075e-11
-1.507392e-12
4.253055e-11
-4.87295e-12
3.82914e-11
-9.627141e-12
3.357806e-11
-1.521781e-11
2.726307e-11
-2.130608e-11
2.13373e-11
1.552418e-11
-2.75492e-11
-1.192321e-12
4.873546e-11
-4.398716e-12
4.65137e-11
-8.439805e-12
4.276997e-11
-1.350791e-11
3.850469e-11
-1.919436e-11
3.227971e-11
-2.528255e-11
2.625372e-11
2.013416e-11
-3.150343e-11
-2.683396e-12
5.336131e-11
-7.060469e-12
5.134502e-11
-1.191874e-11
4.78646e-11
-1.75117e-11
4.386817e-11
-2.34987e-11
3.759664e-11
-2.975446e-11
3.139925e-11
2.493935e-11
-3.607233e-11
-4.063019e-12
5.901567e-11
-9.615233e-12
5.707072e-11
-1.539516e-11
5.36816e-11
-2.167733e-11
4.980503e-11
-2.813916e-11
4.334547e-11
-3.471925e-11
3.688233e-11
3.001634e-11
-4.125698e-11
-5.406067e-12
6.572048e-11
-1.21613e-11
6.375252e-11
-1.895474e-11
6.032148e-11
-2.606048e-11
5.643644e-11
-3.315538e-11
4.965888e-11
-4.02017e-11
4.281259e-11
3.545417e-11
-4.708152e-11
-6.768213e-12
7.353394e-11
-1.478068e-11
7.146926e-11
-2.267953e-11
6.788403e-11
-3.065279e-11
6.379368e-11
-3.860438e-11
5.673463e-11
-4.624842e-11
4.929809e-11
4.135028e-11
-5.359158e-11
-8.193384e-12
8.254445e-11
-1.754807e-11
8.032328e-11
-2.662231e-11
7.644896e-11
-3.474617e-11
7.118169e-11
-4.446503e-11
6.547674e-11
-5.291987e-11
5.654355e-11
4.781066e-11
-6.084747e-11
-9.714614e-12
9.286344e-11
-2.051159e-11
9.042468e-11
-3.094651e-11
8.620529e-11
-4.104862e-11
8.04305e-11
-5.107477e-11
7.441735e-11
-6.031955e-11
6.45162e-11
5.492966e-11
-6.893864e-11
-1.137248e-11
1.046354e-10
-2.375476e-11
1.019211e-10
-3.566858e-11
9.727072e-11
-4.715422e-11
9.092195e-11
-5.831322e-11
8.437787e-11
-6.853798e-11
7.339571e-11
6.281095e-11
-7.796281e-11
-1.320128e-11
1.18034e-10
-2.73364e-11
1.149811e-10
-4.088611e-11
1.098031e-10
-5.385071e-11
1.027525e-10
-6.633948e-11
9.555518e-11
-7.769762e-11
8.333031e-11
7.155624e-11
-8.803777e-11
-1.523893e-11
1.332655e-10
-3.132823e-11
1.298034e-10
-4.670418e-11
1.239897e-10
-6.131958e-11
1.160893e-10
-7.512594e-11
1.079239e-10
-8.793115e-11
9.461387e-11
8.127317e-11
-9.930218e-11
-1.752793e-11
1.505745e-10
-3.581217e-11
1.466227e-10
-5.324681e-11
1.400586e-10
-6.965667e-11
1.310766e-10
-8.341689e-11
1.201621e-10
-9.924887e-11
1.088182e-10
9.222653e-11
-1.119096e-10
-2.01138e-11
1.702462e-10
-4.086732e-11
1.657043e-10
-6.059424e-11
1.582367e-10
-7.913613e-11
1.480472e-10
-9.620309e-11
1.356345e-10
-1.122702e-10
1.23156e-10
1.042896e-10
-1.260924e-10
-2.305486e-11
1.926194e-10
-4.661475e-11
1.873723e-10
-6.895746e-11
1.788387e-10
-8.987896e-11
1.672422e-10
-1.091136e-10
1.531615e-10
-1.268448e-10
1.390713e-10
1.177162e-10
-1.420754e-10
-2.641307e-11
2.180892e-10
-5.316854e-11
2.119998e-10
-7.848118e-11
2.022093e-10
-1.020771e-10
1.889556e-10
-1.236149e-10
1.728834e-10
-1.430387e-10
1.565958e-10
1.329531e-10
-1.601276e-10
-3.025929e-11
2.471142e-10
-6.066307e-11
2.400187e-10
-8.935886e-11
2.287499e-10
-1.160149e-10
2.135708e-10
-1.401365e-10
1.950913e-10
-1.594874e-10
1.740478e-10
1.519989e-10
-1.804278e-10
-3.467032e-11
2.802203e-10
-6.924251e-11
2.719218e-10
-1.017839e-10
2.589068e-10
-1.318607e-10
2.414421e-10
-1.589912e-10
2.202089e-10
-1.828158e-10
1.960064e-10
1.710972e-10
-2.038247e-10
-3.973538e-11
3.180111e-10
-7.908301e-11
3.082805e-10
-1.160297e-10
2.932173e-10
-1.50065e-10
2.730968e-10
-1.806639e-10
2.486936e-10
-2.074706e-10
2.209248e-10
1.922828e-10
-2.30534e-10
-4.553151e-11
3.611529e-10
-9.036583e-11
3.497607e-10
-1.323544e-10
3.322896e-10
-1.709116e-10
3.090827e-10
-2.054287e-10
2.809899e-10
-2.354209e-10
2.490038e-10
2.15691e-10
-2.606694e-10
-5.19193e-11
4.101563e-10
-1.032707e-10
3.973346e-10
-1.510363e-10
3.768211e-10
-1.947896e-10
3.50048e-10
-2.338492e-10
3.176995e-10
-2.6758e-10
2.807726e-10
2.402866e-10
-2.939107e-10
-5.93512e-11
4.659638e-10
-1.18008e-10
4.517123e-10
-1.723844e-10
4.275941e-10
-2.221025e-10
3.967209e-10
-2.662814e-10
3.593571e-10
-3.039486e-10
3.163527e-10
2.683939e-10
-3.337736e-10
-6.374167e-11
5.25416e-10
-1.34086e-10
5.171586e-10
-1.966788e-10
4.861468e-10
-2.53441e-10
4.501222e-10
-3.039987e-10
4.071643e-10
-3.474172e-10
3.575118e-10
3.016599e-10
-3.825099e-10
-7.682782e-11
5.971057e-10
-1.525979e-10
5.873143e-10
-2.241521e-10
5.531017e-10
-2.891044e-10
5.112918e-10
-3.472605e-10
4.622252e-10
-3.977569e-10
4.054649e-10
3.412681e-10
-4.393565e-10
-8.770773e-11
6.786219e-10
-1.642493e-10
6.574431e-10
-2.526026e-10
6.360806e-10
-3.291332e-10
5.834168e-10
-3.962509e-10
5.256694e-10
-4.550908e-10
4.611832e-10
3.872174e-10
-5.035551e-10
-9.968766e-11
7.708742e-10
-1.947544e-10
7.452095e-10
-2.747989e-10
7.099075e-10
-3.724098e-10
6.756275e-10
-4.512766e-10
5.999073e-10
-5.207688e-10
5.264126e-10
4.422569e-10
-5.795526e-10
-1.126453e-10
8.746295e-10
-2.205989e-10
8.447122e-10
-3.219596e-10
8.041342e-10
-4.203681e-10
7.672506e-10
-5.122274e-10
6.855473e-10
-5.946689e-10
6.025794e-10
5.086089e-10
-6.672291e-10
-1.269361e-10
9.909952e-10
-2.482378e-10
9.561852e-10
-3.625992e-10
9.100292e-10
-4.56723e-10
8.530156e-10
-5.749044e-10
7.948737e-10
-6.758937e-10
6.942641e-10
5.883645e-10
-7.656482e-10
-1.423356e-10
1.120815e-09
-2.775899e-10
1.079936e-09
-4.056585e-10
1.027824e-09
-5.266384e-10
9.637927e-10
-6.328092e-10
8.89262e-10
-7.621362e-10
8.097645e-10
6.83044e-10
-8.73197e-10
-1.589569e-10
1.264932e-09
-3.093422e-10
1.216654e-09
-4.516255e-10
1.157442e-09
-5.874675e-10
1.086745e-09
-7.179232e-10
1.005721e-09
-8.516322e-10
9.233967e-10
7.869297e-10
-9.881196e-10
-1.765084e-10
1.423619e-09
-3.435481e-10
1.367076e-09
-5.017372e-10
1.300022e-09
-6.531598e-10
1.222437e-09
-8.002715e-10
1.133909e-09
-9.399471e-10
1.027962e-09
8.877082e-10
-1.113886e-09
-1.923677e-10
1.59404e-09
-3.799824e-10
1.534153e-09
-5.554537e-10
1.456512e-09
-7.223607e-10
1.368652e-09
-8.855587e-10
1.265549e-09
-1.053454e-09
1.138281e-09
9.642461e-10
-1.253348e-09
-1.960968e-10
1.762639e-09
-4.126181e-10
1.724507e-09
-6.10991e-10
1.629794e-09
-7.97724e-10
1.524475e-09
-9.86252e-10
1.40483e-09
-1.190253e-09
1.257124e-09
1.053423e-09
-1.445434e-09
-2.256355e-10
1.952531e-09
-4.200275e-10
1.882567e-09
-6.570854e-10
1.828947e-09
-8.758138e-10
1.697688e-09
-1.098395e-09
1.558957e-09
-1.345594e-09
1.39255e-09
1.158279e-09
-1.628987e-09
-2.387238e-10
2.136934e-09
-4.694225e-10
2.060049e-09
-6.705793e-10
1.973886e-09
-9.484873e-10
1.906947e-09
-1.228262e-09
1.74564e-09
-1.529706e-09
1.555194e-09
1.256245e-09
-1.827241e-09
-2.449144e-10
2.294974e-09
-4.901808e-10
2.225001e-09
-7.391925e-10
2.144754e-09
-9.93546e-10
2.061853e-09
-1.353219e-09
1.967098e-09
-1.692118e-09
1.724478e-09
1.333769e-09
-1.982575e-09
-2.435601e-10
2.410288e-09
-4.984615e-10
2.366236e-09
-7.673999e-10
2.302281e-09
-1.08219e-09
2.242109e-09
-1.423049e-09
2.120783e-09
-1.796783e-09
1.877627e-09
1.455875e-09
-2.145348e-09
-2.241607e-10
2.466817e-09
-4.870781e-10
2.47844e-09
-7.635835e-10
2.424753e-09
-1.082187e-09
2.376649e-09
-1.422985e-09
2.242436e-09
-1.808667e-09
2.00387e-09
1.558878e-09
-2.185663e-09
-2.298492e-10
2.49821e-09
-4.406761e-10
2.502519e-09
-6.944937e-10
2.475102e-09
-9.909667e-10
2.4329e-09
-1.295053e-09
2.284981e-09
-1.638225e-09
2.078722e-09
1.778669e-09
-2.160715e-09
-2.207403e-10
2.486166e-09
-4.380108e-10
2.500531e-09
-6.43344e-10
2.45141e-09
-8.295463e-10
2.344263e-09
-1.075237e-09
2.225883e-09
-1.297368e-09
2.011707e-09
1.795199e-09
-1.612658e-09
-2.171935e-10
2.421292e-09
-4.056179e-10
2.430235e-09
-5.551936e-10
2.345845e-09
-6.915165e-10
2.203755e-09
-8.013302e-10
2.022933e-09
-9.265646e-10
1.823406e-09
1.648429e-09
-1.104169e-09
-2.264072e-10
2.296218e-09
-3.828528e-10
2.283647e-09
-4.784846e-10
2.161438e-09
-5.365902e-10
1.980221e-09
-5.496886e-10
1.766292e-09
-5.119791e-10
1.543656e-09
1.318855e-09
-4.551689e-10
-2.534672e-10
2.111241e-09
-3.980588e-10
2.072952e-09
-4.552214e-10
1.917326e-09
-4.4073e-10
1.699507e-09
-3.386661e-10
1.453361e-09
-1.520629e-10
1.201828e-09
9.558763e-10
5.785369e-11
-2.779034e-10
1.852686e-09
-4.342624e-10
1.80464e-09
-5.009594e-10
1.654069e-09
-4.286698e-10
1.40828e-09
-2.301755e-10
1.137713e-09
8.027223e-11
8.509388e-10
5.616212e-10
4.391961e-10
-3.321062e-10
1.569294e-09
-5.057987e-10
1.526808e-09
-5.377576e-10
1.370457e-09
-4.32121e-10
1.139331e-09
-1.860146e-10
8.754736e-10
1.854369e-10
5.67277e-10
2.507873e-10
6.023622e-10
-3.754901e-10
1.255924e-09
-5.510981e-10
1.226912e-09
-5.407623e-10
1.105274e-09
-4.025865e-10
9.308248e-10
-1.659235e-10
7.244679e-10
1.235145e-10
4.796408e-10
1.79978e-10
4.813314e-10
-4.185192e-10
9.30355e-10
-6.022799e-10
9.170412e-10
-5.684732e-10
8.441207e-10
-3.949062e-10
7.430992e-10
-1.529152e-10
6.323716e-10
9.131348e-11
5.168657e-10
4.011183e-10
3.017572e-10
-4.37803e-10
5.920869e-10
-6.205692e-10
5.917364e-10
-5.600196e-10
5.705849e-10
-3.444358e-10
5.462333e-10
-5.864474e-11
5.345816e-10
2.327353e-10
5.506137e-10
6.153795e-10
5.137318e-10
-4.175947e-10
2.241417e-10
-5.81434e-10
2.330926e-10
-4.811235e-10
2.547776e-10
-1.983411e-10
2.916245e-10
1.870474e-10
3.510996e-10
6.259821e-10
4.454604e-10
5.806053e-10
1.133964e-09
-3.834322e-10
-1.734965e-10
-5.126084e-10
-1.629659e-10
-3.710279e-10
-1.132569e-10
-3.075169e-11
-3.855882e-11
4.367654e-10
5.773991e-11
9.952513e-10
1.720211e-10
3.093698e-10
1.639732e-09
-3.45597e-10
-5.916218e-10
-4.365507e-10
-5.852247e-10
-2.720721e-10
-5.17434e-10
8.099364e-11
-4.187863e-10
5.66057e-10
-3.084071e-10
1.138458e-09
-1.927671e-10
-7.065867e-11
1.773044e-09
-2.936439e-10
-1.024844e-09
-3.51681e-10
-1.02208e-09
-1.824133e-10
-9.440878e-10
1.575526e-10
-8.31448e-10
6.258458e-10
-7.152385e-10
1.183169e-09
-6.090951e-10
-5.746209e-10
1.853204e-09
-2.465695e-10
-1.450837e-09
-2.875828e-10
-1.4501e-09
-1.352239e-10
-1.372135e-09
1.664439e-10
-1.258404e-09
5.947061e-10
-1.14575e-09
1.124706e-09
-1.062363e-09
-1.212711e-09
1.846512e-09
-2.227293e-10
-1.837054e-09
-2.732297e-10
-1.839516e-09
-1.542421e-10
-1.808048e-09
8.669898e-11
-1.695552e-09
4.650245e-10
-1.608287e-09
9.524251e-10
-1.554436e-09
-1.565038e-09
1.300598e-09
-2.011877e-10
-2.180986e-09
-2.67228e-10
-2.189839e-09
-2.630321e-10
-2.128442e-09
-1.291279e-10
-2.046358e-09
9.562163e-11
-1.97009e-09
3.829142e-10
-1.916215e-09
-1.891157e-09
6.406001e-10
-2.133485e-10
-2.42671e-09
-3.142837e-10
-2.448155e-09
-3.344976e-10
-2.39738e-09
-2.967537e-10
-2.325993e-09
-2.047034e-10
-2.247743e-09
-8.245001e-11
-2.168649e-09
-2.076751e-09
-9.899003e-12
-2.110755e-10
-2.591189e-09
-3.584668e-10
-2.621315e-09
-4.549944e-10
-2.582386e-09
-5.220347e-10
-2.514351e-09
-5.596913e-10
-2.423789e-09
-5.859386e-10
-2.303209e-09
-2.179004e-09
-6.32458e-10
-2.174731e-10
-2.675925e-09
-4.209871e-10
-2.702855e-09
-5.984546e-10
-2.676351e-09
-7.655236e-10
-2.606292e-09
-8.940243e-10
-2.534563e-09
-1.04166e-09
-2.340326e-09
-2.108744e-09
-1.259579e-09
-2.286399e-10
-2.690819e-09
-4.734607e-10
-2.703424e-09
-7.186622e-10
-2.682733e-09
-9.394863e-10
-2.650834e-09
-1.199587e-09
-2.510539e-09
-1.407308e-09
-2.297187e-09
-1.962538e-09
-1.676548e-09
-2.38422e-10
-2.646315e-09
-4.775027e-10
-2.670221e-09
-7.707255e-10
-2.61698e-09
-1.101641e-09
-2.56192e-09
-1.406426e-09
-2.419791e-09
-1.693408e-09
-2.175008e-09
-1.739656e-09
-2.048055e-09
-2.287447e-10
-2.565682e-09
-5.187568e-10
-2.539678e-09
-8.288651e-10
-2.482686e-09
-1.175362e-09
-2.414949e-09
-1.513295e-09
-2.284115e-09
-1.84015e-09
-2.034518e-09
-1.638483e-09
-2.092139e-09
-2.463403e-10
-2.422806e-09
-5.217432e-10
-2.380448e-09
-8.183362e-10
-2.318399e-09
-1.157405e-09
-2.237518e-09
-1.512119e-09
-2.128908e-09
-1.841662e-09
-1.902986e-09
-1.521457e-09
-2.131926e-09
-2.453864e-10
-2.245973e-09
-5.065482e-10
-2.200737e-09
-7.790007e-10
-2.141402e-09
-1.066817e-09
-2.079275e-09
-1.433892e-09
-1.935322e-09
-1.77456e-09
-1.753135e-09
-1.449526e-09
-2.051399e-09
-2.372909e-10
-2.054761e-09
-4.805102e-10
-2.013022e-09
-7.10573e-10
-1.979515e-09
-1.003914e-09
-1.878794e-09
-1.309725e-09
-1.759932e-09
-1.647083e-09
-1.599096e-09
-1.372152e-09
-1.948129e-09
-2.242026e-10
-1.865151e-09
-4.342124e-10
-1.842574e-09
-6.833367e-10
-1.775799e-09
-9.242227e-10
-1.696348e-09
-1.178015e-09
-1.599157e-09
-1.466199e-09
-1.458336e-09
-1.260737e-09
-1.782615e-09
-2.000943e-10
-1.693643e-09
-4.214122e-10
-1.651746e-09
-6.352929e-10
-1.592759e-09
-8.412195e-10
-1.526985e-09
-1.066809e-09
-1.429406e-09
-1.309115e-09
-1.310175e-09
-1.145612e-09
-1.593888e-09
-1.951103e-10
-1.521955e-09
-3.914718e-10
-1.47985e-09
-5.823301e-10
-1.426204e-09
-7.734689e-10
-1.361308e-09
-9.651734e-10
-1.268857e-09
-1.163738e-09
-1.162059e-09
-1.019948e-09
-1.391966e-09
-1.811927e-10
-1.360014e-09
-3.576363e-10
-1.323182e-09
-5.270244e-10
-1.276586e-09
-7.034629e-10
-1.205037e-09
-8.736436e-10
-1.120023e-09
-1.035957e-09
-1.028616e-09
-8.754853e-10
-1.230084e-09
-1.643354e-10
-1.211558e-09
-3.211855e-10
-1.182559e-09
-4.813174e-10
-1.132213e-09
-6.346531e-10
-1.067472e-09
-7.765374e-10
-9.952886e-10
-9.322728e-10
-8.930068e-10
-7.51874e-10
-1.079279e-09
-1.478968e-10
-1.076753e-09
-2.92962e-10
-1.050853e-09
-4.333417e-10
-1.004371e-09
-5.671299e-10
-9.459844e-10
-6.896053e-10
-8.863658e-10
-8.262996e-10
-7.70712e-10
-6.523627e-10
-9.407279e-10
-1.307123e-10
-9.568245e-10
-2.623493e-10
-9.302791e-10
-3.867776e-10
-8.900676e-10
-4.888535e-10
-8.53933e-10
-6.196473e-10
-7.657021e-10
-7.256573e-10
-6.745576e-10
-5.71686e-10
-8.162082e-10
-1.179563e-10
-8.476852e-10
-2.333005e-10
-8.241176e-10
-3.425463e-10
-7.891185e-10
-4.490828e-10
-7.554772e-10
-5.480141e-10
-6.740407e-10
-6.345123e-10
-5.949533e-10
-5.049124e-10
-7.076263e-10
-1.044715e-10
-7.503978e-10
-2.055823e-10
-7.307015e-10
-2.906078e-10
-7.111443e-10
-3.964375e-10
-6.560806e-10
-4.808371e-10
-5.952092e-10
-5.538271e-10
-5.269797e-10
-4.491824e-10
-6.138675e-10
-9.198181e-11
-6.642571e-10
-1.724938e-10
-6.567887e-10
-2.674295e-10
-6.221562e-10
-3.495839e-10
-5.790952e-10
-4.212836e-10
-5.280066e-10
-4.835268e-10
-4.686556e-10
-4.018467e-10
-5.341498e-10
-8.056188e-11
-5.884319e-10
-1.607724e-10
-5.822186e-10
-2.371425e-10
-5.50742e-10
-3.066986e-10
-5.138965e-10
-3.689797e-10
-4.695107e-10
-4.229325e-10
-4.179841e-10
-3.602801e-10
-4.672678e-10
-6.654279e-11
-5.257651e-10
-1.412582e-10
-5.123354e-10
-2.080225e-10
-4.882277e-10
-2.688421e-10
-4.568492e-10
-3.232024e-10
-4.184422e-10
-3.700656e-10
-3.73995e-10
-3.245126e-10
-4.083223e-10
-6.234212e-11
-4.665569e-10
-1.244491e-10
-4.543694e-10
-1.824319e-10
-4.339415e-10
-2.357817e-10
-4.068159e-10
-2.834763e-10
-3.736646e-10
-3.2446e-10
-3.355702e-10
-2.939088e-10
-3.57295e-10
-5.463319e-11
-4.144516e-10
-1.090563e-10
-4.03547e-10
-1.600343e-10
-3.862057e-10
-2.070622e-10
-3.627345e-10
-2.493657e-10
-3.339802e-10
-2.861641e-10
-3.010755e-10
-2.683989e-10
-3.137867e-10
-4.803962e-11
-3.68442e-10
-9.560141e-11
-3.591415e-10
-1.404666e-10
-3.442059e-10
-1.819724e-10
-3.238728e-10
-2.194419e-10
-2.988996e-10
-2.52345e-10
-2.703188e-10
-2.424114e-10
-2.804414e-10
-4.202996e-11
-3.280285e-10
-8.383587e-11
-3.201204e-10
-1.233633e-10
-3.072262e-10
-1.600454e-10
-2.895836e-10
-1.93303e-10
-2.678499e-10
-2.227401e-10
-2.42922e-10
-2.18718e-10
-2.484984e-10
-3.676748e-11
-2.925294e-10
-7.35592e-11
-2.857969e-10
-1.084149e-10
-2.746458e-10
-1.408579e-10
-2.593192e-10
-1.703556e-10
-2.404071e-10
-1.964296e-10
-2.188085e-10
-1.972588e-10
-2.199322e-10
-3.217186e-11
-2.613282e-10
-6.457857e-11
-2.555844e-10
-9.534749e-11
-2.459142e-10
-1.24113e-10
-2.325448e-10
-1.502667e-10
-2.161764e-10
-1.703393e-10
-2.006905e-10
-1.749602e-10
-1.946262e-10
-2.815209e-11
-2.338864e-10
-5.671239e-11
-2.289766e-10
-8.387897e-11
-2.205723e-10
-1.09349e-10
-2.088955e-10
-1.327447e-10
-1.945843e-10
-1.539466e-10
-1.81413e-10
-1.579632e-10
-1.728512e-10
-2.463157e-11
-2.09733e-10
-4.981564e-11
-2.055265e-10
-7.381465e-11
-1.982032e-10
-9.639901e-11
-1.879721e-10
-1.172742e-10
-1.753918e-10
-1.366602e-10
-1.63848e-10
-1.43085e-10
-1.533702e-10
-2.154059e-11
-1.884593e-10
-4.375442e-11
-1.848463e-10
-6.495987e-11
-1.784464e-10
-8.497223e-11
-1.694672e-10
-1.034167e-10
-1.585097e-10
-1.209986e-10
-1.479884e-10
-1.297524e-10
-1.361013e-10
-1.881817e-11
-1.697124e-10
-3.841558e-11
-1.665961e-10
-5.717005e-11
-1.609707e-10
-7.483436e-11
-1.531681e-10
-8.890419e-11
-1.459301e-10
-1.069231e-10
-1.315879e-10
-1.176186e-10
-1.207671e-10
-1.640701e-11
-1.531924e-10
-3.367797e-11
-1.50496e-10
-5.023241e-11
-1.455338e-10
-6.60031e-11
-1.386276e-10
-8.089501e-11
-1.324458e-10
-9.482281e-11
-1.191707e-10
-1.069565e-10
-1.071387e-10
-1.42629e-11
-1.386394e-10
-2.946469e-11
-1.362953e-10
-4.406821e-11
-1.318924e-10
-5.805707e-11
-1.257361e-10
-7.156133e-11
-1.202304e-10
-8.382552e-11
-1.083218e-10
-9.740744e-11
-9.496889e-11
-1.234469e-11
-1.258307e-10
-2.569561e-11
-1.237797e-10
-3.855497e-11
-1.198442e-10
-5.094593e-11
-1.143151e-10
-6.299365e-11
-1.093661e-10
-7.399308e-11
-9.866257e-11
-8.884702e-11
-8.409623e-11
-1.061604e-11
-1.145763e-10
-2.230113e-11
-1.127648e-10
-3.358719e-11
-1.092189e-10
-4.444581e-11
-1.042973e-10
-5.528566e-11
-9.960343e-11
-6.518964e-11
-9.002745e-11
-8.116271e-11
-7.437106e-11
-9.045166e-12
-1.047135e-10
-1.922537e-11
-1.030874e-10
-2.904202e-11
-9.991444e-11
-3.723248e-11
-9.684426e-11
-4.822557e-11
-8.958691e-11
-5.728308e-11
-8.217533e-11
-7.424089e-11
-6.566407e-11
-7.594318e-12
-9.611203e-11
-1.638947e-11
-9.462079e-11
-2.499795e-11
-9.166683e-11
-3.356902e-11
-8.890102e-11
-4.209838e-11
-8.193464e-11
-5.017798e-11
-7.524549e-11
-6.798307e-11
-5.786577e-11
-6.235586e-12
-8.86623e-11
-1.375063e-11
-8.724771e-11
-2.120006e-11
-8.441874e-11
-2.886568e-11
-8.173249e-11
-3.638782e-11
-7.519508e-11
-4.37568e-11
-6.897461e-11
-6.227628e-11
-5.087404e-11
-4.933168e-12
-8.22811e-11
-1.124439e-11
-8.087437e-11
-1.763137e-11
-7.806644e-11
-2.438384e-11
-7.535372e-11
-3.116068e-11
-6.91243e-11
-3.794765e-11
-6.324953e-11
-5.701684e-11
-4.461414e-11
-3.644835e-12
-7.691475e-11
-8.802232e-12
-7.542442e-11
-1.421692e-11
-7.250895e-11
-2.017461e-11
-6.965015e-11
-2.635047e-11
-6.359151e-11
-3.26876e-11
-5.795807e-11
-5.210695e-11
-3.902346e-11
-2.317413e-12
-7.25425e-11
-6.345084e-12
-7.083831e-11
-1.087573e-11
-6.764749e-11
-1.617365e-11
-6.449748e-11
-2.189864e-11
-5.847008e-11
-2.793033e-11
-5.298626e-11
-4.745524e-11
-3.40585e-11
-8.764108e-13
-6.918847e-11
-3.775294e-12
-6.707113e-11
-7.521807e-12
-6.337824e-11
-1.232248e-11
-5.975901e-11
-1.776872e-11
-5.362882e-11
-2.36506e-11
-4.822491e-11
-4.298104e-11
-2.969634e-11
7.853105e-13
-6.69407e-11
-9.718055e-13
-6.408661e-11
-4.02216e-12
-5.962526e-11
-8.577577e-12
-5.523383e-11
-1.395107e-11
-4.892989e-11
-1.985108e-11
-4.357507e-11
-3.862277e-11
-2.594474e-11
2.794932e-12
-6.595336e-11
2.245622e-12
-6.191639e-11
3.026487e-13
-5.687447e-11
-4.873535e-12
-5.016003e-11
-1.047338e-11
-4.418804e-11
-1.657652e-11
-3.89616e-11
-3.556381e-11
-2.157305e-11
5.457598e-12
-6.661223e-11
5.928234e-12
-6.041314e-11
3.38361e-12
-5.359376e-11
-1.453555e-12
-4.569863e-11
-7.428002e-12
-3.944691e-11
-1.291625e-11
-3.528647e-11
-3.131754e-11
-1.94104e-11
9.132448e-12
-6.965738e-11
1.045573e-11
-5.968692e-11
7.368209e-12
-5.02156e-11
1.796212e-12
-4.111787e-11
-4.215246e-12
-3.521149e-11
-1.117031e-11
-3.064918e-11
-2.72754e-11
-1.790482e-11
1.445665e-11
-7.688409e-11
1.602168e-11
-6.004039e-11
1.163868e-11
-4.679343e-11
5.071299e-12
-3.65468e-11
-2.598839e-12
-3.019161e-11
-1.008776e-11
-2.618946e-11
-2.353165e-11
-1.705302e-11
2.314099e-11
-9.732339e-11
2.332951e-11
-6.300221e-11
1.63046e-11
-4.296662e-11
7.225822e-12
-3.111321e-11
-1.617894e-12
-2.520198e-11
-9.646389e-12
-2.202449e-11
-2.01969e-11
-1.679436e-11
4.375187e-11
-1.484606e-10
3.5378e-11
-6.842807e-11
2.134141e-11
-3.669064e-11
8.978785e-12
-2.444282e-11
-1.235344e-12
-2.015752e-11
-9.74591e-12
-1.824895e-11
-1.734676e-11
-1.698645e-11
9.208321e-11
5.594422e-11
2.715432e-11
9.928343e-12
-1.470207e-12
-1.022156e-11
-1.74187e-11
-2.427154e-11
-1.353332e-11
-2.929639e-11
-1.398089e-11
-1.663903e-11
-1.437395e-11
-1.660478e-11
-1.737483e-11
-7.604749e-12
1.796418e-11
-1.83737e-11
-7.827618e-12
1.885792e-11
-1.951816e-11
-7.640592e-12
2.070449e-11
-2.207183e-11
-6.083666e-12
-2.419653e-11
-1.178548e-11
-2.92064e-11
-1.266924e-11
-1.664135e-11
-1.359705e-11
-1.619823e-11
7.395279e-12
-1.72748e-11
-7.282218e-12
7.684601e-12
1.779413e-11
-1.804062e-11
-7.639832e-12
7.229161e-12
1.815375e-11
-1.794056e-11
-7.336695e-12
4.323551e-12
1.694469e-11
-1.296242e-11
-7.323269e-12
-2.411623e-11
-9.644047e-12
-2.92985e-11
-1.100624e-11
-3.341555e-11
-1.21368e-11
-1.759831e-11
-7.035189e-12
7.051325e-12
6.935674e-12
-1.755963e-11
-6.919389e-12
7.666459e-12
-1.778632e-11
-7.683448e-12
7.576559e-12
1.77726e-11
-1.746217e-11
-7.793464e-12
8.536046e-12
1.680156e-11
-1.525242e-11
-9.013617e-12
-2.413529e-11
-7.090339e-12
-2.928081e-11
-9.153999e-12
-1.620226e-11
-1.114516e-11
-1.668031e-11
-1.723273e-11
-6.417402e-12
7.738658e-12
1.770304e-11
-1.782672e-11
-7.814747e-12
7.964749e-12
1.780793e-11
-1.757545e-11
-8.101913e-12
9.258246e-12
1.712331e-11
-1.584849e-11
-9.442742e-12
-2.457148e-11
-4.098412e-12
-2.986657e-11
-6.880029e-12
-1.695448e-11
-9.530093e-12
-1.694483e-11
6.258285e-12
-1.75433e-11
-6.053281e-12
7.868996e-12
1.796091e-11
-1.808151e-11
-7.927583e-12
8.23065e-12
1.80391e-11
-1.778446e-11
-8.383188e-12
9.6031e-12
1.731561e-11
-1.601835e-11
-9.799144e-12
-2.554996e-11
-7.210409e-13
-3.094216e-11
-4.223668e-12
-1.751128e-11
-7.605347e-12
-1.75631e-11
5.749033e-12
-1.80867e-11
-5.510491e-12
7.986298e-12
-1.864174e-11
-8.037742e-12
1.853124e-11
8.592731e-12
1.85331e-11
-1.812718e-11
-8.890426e-12
1.01027e-11
1.739992e-11
-1.579146e-11
-1.060975e-11
-2.71572e-11
2.97337e-12
-3.263872e-11
-1.213713e-12
-1.84138e-11
-5.298675e-12
-1.854044e-11
-1.89534e-11
-4.835352e-12
5.078343e-12
8.008245e-12
1.855522e-11
-1.966958e-11
-7.017228e-12
9.288323e-12
1.964816e-11
-1.910284e-11
-9.715031e-12
1.164279e-11
1.770824e-11
-1.428309e-11
-1.401612e-11
-2.942585e-11
5.872314e-12
-3.497989e-11
2.105081e-12
-1.965688e-11
-2.616669e-12
-1.983687e-11
4.241866e-12
-2.030726e-11
-3.850802e-12
6.710542e-12
-2.143616e-11
-6.291748e-12
2.092374e-11
9.869813e-12
2.186839e-11
-2.237954e-11
-9.218435e-12
1.862088e-11
2.344745e-11
-2.582253e-11
-1.461612e-11
-3.363292e-11
9.860939e-12
-3.794624e-11
4.34843e-12
-2.117351e-11
3.353604e-13
-2.139741e-11
-2.184248e-11
-2.658088e-12
3.098047e-12
5.766901e-12
2.253999e-11
-2.314085e-11
-5.235907e-12
8.249826e-12
2.365392e-11
-2.409379e-11
-7.653485e-12
8.69831e-12
2.424613e-11
-2.176566e-11
-9.717526e-12
-3.756741e-11
1.400174e-11
-4.307942e-11
7.916104e-12
-2.296139e-11
1.895444e-12
-2.324175e-11
1.809869e-12
-2.35974e-11
-1.376028e-12
4.717813e-12
2.427424e-11
-2.480922e-11
-4.230493e-12
7.258985e-12
2.516516e-11
-2.529905e-11
-6.953651e-12
9.963875e-12
2.508406e-11
-2.335017e-11
-1.014232e-11
-4.219788e-11
1.83188e-11
-4.773735e-11
1.163419e-11
-2.590768e-11
4.952386e-12
-2.635875e-11
4.589151e-13
-2.566637e-11
-8.800151e-13
3.74877e-12
2.630231e-11
-2.679029e-11
-3.286864e-12
6.671357e-12
2.708428e-11
-2.716551e-11
-6.399501e-12
1.007055e-11
2.698307e-11
-2.547104e-11
-9.898418e-12
-4.752983e-11
2.285779e-11
-5.316049e-11
1.552898e-11
-2.85824e-11
8.124199e-12
-2.91318e-11
-4.913085e-14
-2.905456e-11
3.590301e-13
2.814958e-12
2.966481e-11
-2.915567e-11
-3.329515e-12
6.149835e-12
2.943082e-11
-2.944649e-11
-5.921169e-12
9.851391e-12
2.912748e-11
-2.719761e-11
-9.985433e-12
-5.360011e-11
2.768669e-11
-5.939357e-11
1.964647e-11
-3.169157e-11
1.145316e-11
-3.234298e-11
-1.363215e-12
-3.211719e-11
1.64444e-12
2.903128e-12
3.270057e-11
-3.31038e-11
-2.479771e-12
5.687283e-12
3.329968e-11
-3.229e-11
-6.454889e-12
1.014579e-11
3.199198e-11
-2.989008e-11
-1.029199e-11
-6.045381e-11
3.288065e-11
-6.648958e-11
2.404622e-11
-3.525855e-11
1.498003e-11
-3.601572e-11
-2.735454e-12
-3.564266e-11
2.991103e-12
2.024011e-12
3.620824e-11
-3.660793e-11
-1.577654e-12
6.18767e-12
3.68151e-11
-3.685962e-11
-5.863139e-12
1.017133e-11
3.68018e-11
-3.466954e-11
-1.007537e-11
-6.815916e-11
3.852864e-11
-7.451711e-11
2.879236e-11
-3.931692e-11
1.875596e-11
-4.019157e-11
-4.177776e-12
-3.965979e-11
4.407323e-12
1.118083e-12
4.019792e-11
-4.055714e-11
-6.841535e-13
5.631783e-12
4.066065e-11
-4.042668e-11
-5.547434e-12
9.480384e-12
3.95156e-11
-3.543463e-11
-1.134274e-11
-7.679474e-11
4.471214e-11
-8.356225e-11
3.395956e-11
-4.391206e-11
2.283918e-11
-4.49165e-11
-5.701376e-12
-4.422547e-11
5.916459e-12
2.151227e-13
4.47547e-11
-4.511077e-11
2.463426e-13
5.379793e-12
4.522172e-11
-4.506692e-11
-5.169728e-12
1.101331e-11
4.456664e-11
-4.216621e-11
-1.086224e-11
-8.64633e-11
5.151998e-11
-9.372053e-11
3.961684e-11
-4.90875e-11
2.729741e-11
-5.025148e-11
-7.334616e-12
-4.935313e-11
7.515671e-12
-7.553231e-13
4.991256e-11
-5.025199e-11
1.228138e-12
4.961818e-12
5.035781e-11
-5.015508e-11
-4.748504e-12
1.093305e-11
4.951094e-11
-4.662652e-11
-1.10407e-11
-9.727204e-11
5.90321e-11
-1.050932e-10
4.58271e-11
-5.490504e-11
3.214665e-11
-5.618864e-11
-9.279186e-12
-5.516719e-11
9.469728e-12
3.737518e-13
5.586723e-11
-5.60667e-11
5.342308e-15
4.556061e-12
5.613783e-11
-5.588044e-11
-4.33928e-12
1.112225e-11
5.51372e-11
-5.198467e-11
-1.123846e-11
-1.09366e-10
6.733653e-11
-1.178241e-10
5.265358e-11
-6.143075e-11
3.745667e-11
-6.285708e-11
-1.120215e-11
-6.169077e-11
1.139994e-11
-5.079387e-13
6.233638e-11
-6.259049e-11
9.75915e-13
4.124161e-12
6.262006e-11
-6.229999e-11
-3.905296e-12
1.133925e-11
6.144189e-11
-5.797202e-11
-1.149205e-11
-1.228963e-10
7.652454e-11
-1.320572e-10
6.015446e-11
-6.870951e-11
4.325156e-11
-7.031201e-11
-1.332051e-11
-6.895157e-11
1.350978e-11
-1.506207e-12
6.963415e-11
-6.986598e-11
1.993352e-12
3.682175e-12
6.987087e-11
-6.949542e-11
-3.446266e-12
1.164357e-11
6.851771e-11
-6.471221e-11
-1.18026e-11
-1.380666e-10
8.666294e-11
-1.479838e-10
6.838144e-11
-7.684455e-11
4.956386e-11
-7.864993e-11
-1.561804e-11
-7.705176e-11
1.577729e-11
-2.550294e-12
7.775099e-11
-7.796572e-11
3.058073e-12
3.206778e-12
7.794378e-11
-7.751221e-11
-2.955646e-12
1.194883e-11
7.641248e-11
-7.221437e-11
-1.212761e-11
-1.551068e-10
9.783382e-11
-1.658088e-10
7.737812e-11
-8.599267e-11
5.660979e-11
-8.808704e-11
-1.806046e-11
-8.606585e-11
1.808427e-11
-3.627388e-12
8.676209e-11
-8.694818e-11
4.136775e-12
2.70804e-12
8.689564e-11
-8.640131e-11
-2.451431e-12
1.228257e-11
8.517006e-11
-8.056807e-11
-1.247461e-11
-1.742579e-10
1.101049e-10
-1.855686e-10
8.701819e-11
-9.696945e-11
6.321373e-11
-9.638729e-11
-2.031589e-11
-9.568787e-11
1.896949e-11
-4.718629e-12
9.668438e-11
-9.687963e-11
5.251862e-12
2.199062e-12
9.676093e-11
-9.622527e-11
-1.920268e-12
1.266185e-11
9.48512e-11
-8.981686e-11
-1.287052e-11
-1.959308e-10
1.237953e-10
-2.082792e-10
9.778748e-11
-2.185967e-10
7.25964e-11
-1.094955e-10
2.138456e-11
-1.885113e-11
-2.109067e-11
-1.119885e-10
2.149865e-11
-8.658574e-12
-1.111902e-10
1.075572e-11
1.82711e-12
1.079661e-10
-1.070852e-10
-1.812564e-12
1.308188e-11
1.055076e-10
-1.000191e-10
-1.329443e-11
-2.202356e-10
1.384628e-10
-2.32293e-10
1.083511e-10
-1.154503e-10
7.801449e-11
-1.232089e-10
-1.206183e-10
2.660783e-11
-1.304234e-11
1.200843e-10
-1.20227e-10
1.35965e-11
1.568029e-12
1.196452e-10
-1.188404e-10
-1.37161e-12
1.354528e-11
1.170793e-10
-1.110547e-10
-1.380067e-11
-2.484325e-10
1.547457e-10
-2.613827e-10
1.199955e-10
-1.338498e-10
8.649315e-11
-1.367529e-10
-2.944225e-11
-1.333543e-10
2.905695e-11
-1.429994e-11
1.33678e-10
-1.337363e-10
1.485303e-11
1.236099e-12
1.327356e-10
-1.316741e-10
-1.170868e-12
1.407561e-11
1.296181e-10
-1.229859e-10
-1.439576e-11
-2.808508e-10
1.734901e-10
-2.935374e-10
1.317471e-10
-1.491487e-10
9.431218e-11
-1.524854e-10
-3.224808e-11
-1.482101e-10
3.154328e-11
-1.544511e-11
1.483966e-10