/*--------------------------------*- C++ -*----------------------------------*\
| =========                 |                                                 |
| \\      /  F ield         | OpenFOAM: The Open Source CFD Toolbox           |
|  \\    /   O peration     | Version:  2206                                  |
|   \\  /    A nd           | Website:  www.openfoam.com                      |
|    \\/     M anipulation  |                                                 |
\*---------------------------------------------------------------------------*/
FoamFile
{
    version     2.0;
    format      ascii;
    arch        "LSB;label=32;scalar=64";
    class       surfaceScalarField;
    location    "1.8";
    object      phi.a;
}
// * * * * * * * * * * * * * * * * * * * * * * * * * * * * * * * * * * * * * //

dimensions      [0 3 -1 0 0 0 0];

oriented        oriented;

internalField   nonuniform List<scalar> 
26037
(
-1.677935e-10
-4.126163e-11
-9.069846e-11
-2.201758e-11
-5.587723e-11
-8.709598e-12
-3.868566e-11
-3.985198e-12
-2.936563e-11
-2.400131e-12
-2.276751e-11
-1.675214e-12
-1.297734e-12
-1.759592e-11
-9.047516e-11
-6.049156e-11
-6.716279e-11
-3.743503e-11
-4.716197e-11
-1.708228e-11
-3.574528e-11
-8.787156e-12
-2.804066e-11
-5.357762e-12
-2.207529e-11
-3.602997e-12
-2.622926e-12
-1.718807e-11
-3.272044e-11
-1.988142e-11
-3.880679e-11
-2.064546e-11
-3.465389e-11
-1.552419e-11
-2.963219e-11
-9.601518e-12
-2.458628e-11
-6.562473e-12
-1.99918e-11
-4.698881e-12
-3.527373e-12
-1.58461e-11
-1.530036e-11
-6.31648e-12
-2.303514e-11
-1.081344e-11
-2.507099e-11
-1.091176e-11
-2.303706e-11
-8.899882e-12
-2.031906e-11
-6.430215e-12
-1.714857e-11
-5.002176e-12
-3.964663e-12
-1.388304e-11
-8.850167e-12
-2.618758e-12
-1.451974e-11
-5.962178e-12
-1.73891e-11
-7.302618e-12
-1.780413e-11
-6.902217e-12
-1.614425e-11
-6.096024e-12
-1.411059e-11
-4.791932e-12
-4.036466e-12
-1.163653e-11
-5.686405e-12
-1.270384e-12
-9.617357e-12
-3.464191e-12
-1.219606e-11
-4.875545e-12
-1.314246e-11
-5.19577e-12
-1.281844e-11
-5.035715e-12
-1.12226e-11
-4.638284e-12
-3.886596e-12
-9.365141e-12
-3.963918e-12
-7.100305e-13
-6.665818e-12
-2.139229e-12
-8.795437e-12
-3.235811e-12
-9.658009e-12
-4.011656e-12
-9.656836e-12
-4.109229e-12
-8.858414e-12
-4.037509e-12
-3.81861e-12
-7.218655e-12
-2.930883e-12
-4.414768e-13
-4.777922e-12
-1.407253e-12
-6.257939e-12
-2.293079e-12
-7.058421e-12
-3.078728e-12
-7.128969e-12
-3.367552e-12
-6.532364e-12
-3.507233e-12
-3.486268e-12
-5.368579e-12
-2.258313e-12
-2.960206e-13
-3.509378e-12
-9.798028e-13
-4.548652e-12
-1.700348e-12
-5.114449e-12
-2.429997e-12
-5.119909e-12
-2.817893e-12
-4.576246e-12
-3.086742e-12
-3.204608e-12
-3.536824e-12
-1.789371e-12
-2.097603e-13
-2.606245e-12
-7.192197e-13
-3.294574e-12
-1.322672e-12
-3.620719e-12
-1.993269e-12
-3.506379e-12
-2.432445e-12
-2.93599e-12
-2.78158e-12
-2.996696e-12
-1.931138e-12
-1.442566e-12
-1.549939e-13
-1.92962e-12
-5.548726e-13
-2.333211e-12
-1.081396e-12
-2.439859e-12
-1.707249e-12
-2.186911e-12
-2.178735e-12
-1.546939e-12
-2.58259e-12
-2.868821e-12
-5.239818e-13
-1.172742e-12
-1.183261e-13
-1.398259e-12
-4.486149e-13
-1.56613e-12
-9.290543e-13
-1.476476e-12
-1.52884e-12
-1.082174e-12
-2.028673e-12
-3.511285e-13
-2.475976e-12
-2.818885e-12
7.220352e-13
-9.520519e-13
-9.248691e-14
-9.618524e-13
-3.789957e-13
-9.295166e-13
-8.364203e-13
-6.639685e-13
-1.428115e-12
-1.319631e-13
-1.959967e-12
7.001746e-13
-2.447995e-12
-2.841224e-12
1.842709e-12
-7.635795e-13
-7.322331e-14
-5.880373e-13
-3.332789e-13
-3.803954e-13
-7.84215e-13
4.219279e-14
-1.376811e-12
7.090898e-13
-1.950584e-12
1.646605e-12
-2.485391e-12
-2.929285e-12
2.870075e-12
-5.958244e-13
-5.794147e-14
-2.550161e-13
-3.037604e-13
1.106578e-13
-7.620247e-13
6.512092e-13
-1.352208e-12
1.474796e-12
-2.017255e-12
2.520718e-12
-2.584478e-12
-3.07792e-12
3.831952e-12
-4.408425e-13
-4.482429e-14
5.277558e-14
-2.850711e-13
5.676901e-13
-7.635283e-13
1.263229e-12
-1.392154e-12
2.196387e-12
-2.105751e-12
3.348061e-12
-2.733072e-12
-3.282234e-12
4.752522e-12
-2.926848e-13
-3.26642e-14
3.467302e-13
-2.733099e-13
1.003224e-12
-7.80377e-13
1.832074e-12
-1.457799e-12
2.88974e-12
-2.228163e-12
4.150769e-12
-2.926349e-12
-3.537651e-12
5.652907e-12
-1.470254e-13
-2.072559e-14
6.356147e-13
-2.66499e-13
1.431304e-12
-8.104052e-13
2.39143e-12
-1.546975e-12
3.57472e-12
-2.384551e-12
4.94746e-12
-3.161687e-12
-3.841103e-12
6.55146e-12
-2.522093e-17
-8.58673e-15
9.269556e-13
-2.634989e-13
1.863085e-12
-8.521006e-13
2.955876e-12
-1.656952e-12
4.263331e-12
-2.56249e-12
5.753678e-12
-3.42861e-12
-4.189572e-12
7.46414e-12
1.517794e-13
3.964114e-15
1.227652e-12
-2.642708e-13
2.308706e-12
-9.062611e-13
3.53835e-12
-1.791465e-12
4.949187e-12
-2.772699e-12
6.583316e-12
-3.745395e-12
-4.590978e-12
8.405894e-12
3.121775e-13
1.675537e-14
1.544809e-12
-2.697564e-13
2.778068e-12
-9.747088e-13
4.15151e-12
-1.953133e-12
5.68064e-12
-3.036527e-12
7.4557e-12
-4.108844e-12
-5.045108e-12
9.391658e-12
4.849935e-13
2.913865e-14
1.886275e-12
-2.820898e-13
3.282407e-12
-1.060948e-12
4.808537e-12
-2.144892e-12
6.47559e-12
-3.342342e-12
8.386e-12
-4.524427e-12
-5.559117e-12
1.044008e-11
6.74965e-13
3.989854e-14
2.261191e-12
-3.05479e-13
3.835551e-12
-1.17254e-12
5.527906e-12
-2.378166e-12
7.34634e-12
-3.704436e-12
9.394868e-12
-4.99376e-12
-6.138847e-12
1.157992e-11
8.882309e-13
4.696599e-14
2.681646e-12
-3.466924e-13
4.455255e-12
-1.321006e-12
6.333963e-12
-2.669762e-12
8.323825e-12
-4.148122e-12
1.049714e-11
-5.566689e-12
-6.821322e-12
1.28532e-11
1.132439e-12
4.724303e-14
3.163033e-12
-4.153377e-13
5.164903e-12
-1.522356e-12
7.257686e-12
-3.04096e-12
9.445005e-12
-4.696196e-12
1.175289e-11
-6.273217e-12
-7.665857e-12
1.432682e-11
1.417433e-12
3.623115e-14
3.724836e-12
-5.248008e-13
5.993621e-12
-1.797855e-12
8.337545e-12
-3.51902e-12
1.075888e-11
-5.38018e-12
1.327711e-11
-7.142822e-12
-8.701843e-12
1.606309e-11
1.755131e-12
7.549224e-15
4.391057e-12
-6.934052e-13
6.977791e-12
-2.176328e-12
9.623154e-12
-4.140415e-12
1.232869e-11
-6.242895e-12
1.511286e-11
-8.222943e-12
-9.962374e-12
1.814805e-11
2.160017e-12
-4.806305e-14
5.190654e-12
-9.447095e-13
8.160175e-12
-2.693779e-12
1.117184e-11
-4.948414e-12
1.42275e-11
-7.32975e-12
1.734973e-11
-9.563472e-12
-1.152804e-11
2.066029e-11
2.647314e-12
-1.394218e-13
6.156633e-12
-1.304958e-12
9.590813e-12
-3.392656e-12
1.304799e-11
-5.989912e-12
1.652923e-11
-8.681332e-12
2.006692e-11
-1.1181e-11
-1.337638e-11
2.369647e-11
3.238535e-12
-2.883178e-13
7.329845e-12
-1.793995e-12
1.132835e-11
-4.322255e-12
1.532819e-11
-7.315796e-12
1.931871e-11
-1.033386e-11
2.332598e-11
-1.308681e-11
-1.547912e-11
2.735974e-11
3.91065e-12
-4.994184e-13
8.741588e-12
-2.494343e-12
1.344022e-11
-5.525561e-12
1.810817e-11
-8.970876e-12
2.272307e-11
-1.231276e-11
2.728967e-11
-1.528063e-11
-1.783577e-11
3.178209e-11
4.754497e-12
-7.991426e-13
1.046888e-11
-3.496308e-12
1.600902e-11
-6.98782e-12
2.150337e-11
-1.096057e-11
2.689783e-11
-1.45969e-11
3.216972e-11
-1.7685e-11
-2.031726e-11
3.726488e-11
5.761407e-12
-1.213141e-12
1.238619e-11
-4.755181e-12
1.916444e-11
-9.055781e-12
2.564328e-11
-1.317082e-11
3.200581e-11
-1.709139e-11
3.81871e-11
-2.008041e-11
-2.259552e-11
4.409261e-11
6.951022e-12
-1.770638e-12
1.478457e-11
-6.376523e-12
2.26036e-11
-1.146387e-11
3.060476e-11
-1.582783e-11
3.818418e-11
-1.955785e-11
4.550601e-11
-2.204072e-11
-2.403782e-11
5.251937e-11
8.343632e-12
-2.50461e-12
1.763384e-11
-8.425981e-12
2.697013e-11
-1.436201e-11
3.678237e-11
-1.906726e-11
4.560745e-11
-2.122012e-11
5.418161e-11
-2.289197e-11
-2.376846e-11
6.243623e-11
9.981261e-12
-3.44974e-12
2.10253e-11
-1.094312e-11
3.221247e-11
-1.768493e-11
4.336197e-11
-2.216988e-11
5.514629e-11
-2.355179e-11
6.427514e-11
-2.081091e-11
-2.073843e-11
7.464525e-11
1.19658e-11
-4.633956e-12
2.518815e-11
-1.392917e-11
3.865486e-11
-2.138713e-11
5.183658e-11
-2.519947e-11
6.417551e-11
-2.467648e-11
7.703492e-11
-1.769939e-11
-1.286949e-11
9.461828e-11
1.451558e-11
-6.067874e-12
3.053005e-11
-1.738589e-11
4.674942e-11
-2.554084e-11
6.248205e-11
-2.857278e-11
7.832231e-11
-2.55932e-11
1.029868e-10
-1.528787e-11
9.848173e-12
1.35605e-10
1.794392e-11
-7.698998e-12
3.751178e-11
-2.13846e-11
5.75168e-11
-3.091211e-11
7.870142e-11
-3.367199e-11
1.045358e-10
-2.722477e-11
1.413863e-10
-8.561592e-12
3.682379e-11
2.069595e-10
2.255434e-11
-9.608257e-12
4.770746e-11
-2.676391e-11
7.538885e-11
-3.938823e-11
1.080786e-10
-4.272902e-11
1.501215e-10
-3.199586e-11
2.090504e-10
-3.437474e-12
4.439483e-11
3.261475e-10
3.016843e-11
-1.282682e-11
6.650984e-11
-3.593242e-11
1.066886e-10
-5.09522e-11
1.540595e-10
-5.558486e-11
2.140731e-10
-4.037112e-11
2.953019e-10
-5.758779e-13
5.956768e-11
4.253267e-10
4.535536e-11
-1.758666e-11
9.501138e-11
-4.619925e-11
1.520421e-10
-6.611651e-11
2.109561e-10
-6.291289e-11
2.859474e-10
-4.515969e-11
4.057716e-10
6.429627e-12
8.275296e-11
6.434644e-10
6.720289e-11
-2.08548e-11
1.309888e-10
-5.125114e-11
1.938217e-10
-7.126612e-11
2.753882e-10
-7.059639e-11
3.79799e-10
-2.17481e-11
6.165409e-10
3.669887e-11
1.28496e-10
1.031117e-09
9.083556e-11
-1.866591e-11
1.660576e-10
-4.42139e-11
2.356127e-10
-5.948942e-11
3.337045e-10
-5.232486e-11
5.913999e-10
-4.277284e-12
9.880142e-10
1.562754e-10
2.126292e-10
1.582496e-09
1.124167e-10
-1.096356e-11
1.982863e-10
-2.176177e-11
2.850483e-10
-2.683349e-11
4.849449e-10
-2.405492e-12
8.885806e-10
6.107959e-11
1.597999e-09
1.788082e-10
5.014335e-10
2.263835e-09
1.297154e-10
5.864134e-13
2.368542e-10
4.871781e-12
4.018875e-10
2.211859e-11
7.6995e-10
1.070666e-10
1.341976e-09
1.756669e-10
2.108449e-09
2.861829e-10
4.333611e-10
3.32419e-09
1.525669e-10
1.358344e-11
2.984359e-10
4.293449e-11
5.977556e-10
8.619261e-11
1.202009e-09
1.680576e-10
1.906468e-09
4.088771e-10
2.8131e-09
4.510259e-10
6.058426e-10
3.866699e-09
1.878749e-10
2.832732e-11
4.46216e-10
8.764845e-11
9.148931e-10
1.609383e-10
1.6095e-09
2.640573e-10
2.705561e-09
4.130926e-10
3.884996e-09
5.707927e-10
1.191827e-09
4.824264e-09
2.595158e-10
4.609621e-11
6.745336e-10
1.361114e-10
1.305403e-09
2.392072e-10
2.147171e-09
3.692968e-10
3.178951e-09
5.259269e-10
4.358684e-09
6.851981e-10
9.054145e-10
6.25473e-09
3.796025e-10
6.567421e-11
9.532093e-10
1.82655e-10
1.730297e-09
3.168206e-10
2.711103e-09
4.609433e-10
3.853238e-09
6.23876e-10
5.118144e-09
7.836693e-10
9.294201e-10
6.585754e-09
5.634161e-10
7.386678e-11
1.339765e-09
1.958262e-10
2.17022e-09
4.62077e-10
3.2628e-09
5.294504e-10
4.520096e-09
6.656863e-10
5.900038e-09
8.157745e-10
1.014894e-09
7.340112e-09
7.467584e-10
7.973552e-11
1.636044e-09
1.969085e-10
2.859175e-09
3.166832e-10
4.235928e-09
4.632613e-10
5.839536e-09
5.173341e-10
7.599726e-09
6.463514e-10
1.687574e-09
8.648788e-09
9.218654e-10
7.78198e-11
1.917972e-09
1.850452e-10
3.059715e-09
2.724207e-10
4.392252e-09
3.461693e-10
5.819416e-09
4.027668e-10
7.383143e-09
4.739017e-10
8.593841e-10
9.80115e-09
1.055162e-09
6.538494e-11
2.141955e-09
1.500962e-10
3.335842e-09
2.126981e-10
4.64389e-09
2.577565e-10
6.048998e-09
2.93039e-10
7.54235e-09
3.265735e-10
3.980509e-10
9.380357e-09
1.153834e-09
3.96534e-11
2.322089e-09
8.469997e-11
3.597376e-09
1.114711e-10
4.987286e-09
1.240258e-10
6.490429e-09
1.283847e-10
8.083117e-09
1.282086e-10
1.262303e-10
9.745417e-09
1.234587e-09
-2.614512e-12
2.494193e-09
-2.158909e-11
3.892215e-09
-5.188625e-11
5.440478e-09
-9.194154e-11
7.147726e-09
-1.398468e-10
8.998905e-09
-1.953869e-10
-2.590743e-10
1.095503e-08
1.230868e-09
-4.272312e-11
2.490311e-09
-1.224558e-10
3.892719e-09
-2.075482e-10
5.449611e-09
-2.983739e-10
7.171337e-09
-3.964649e-10
9.049855e-09
-5.041573e-10
-6.240164e-10
1.106529e-08
1.144214e-09
-6.520788e-11
2.311142e-09
-1.786856e-10
3.595816e-09
-2.938175e-10
5.004794e-09
-4.11582e-10
6.5393e-09
-5.343371e-10
8.19073e-09
-6.663449e-10
-8.459716e-10
9.98801e-09
1.043992e-09
-7.580284e-11
2.128283e-09
-2.05572e-10
3.332611e-09
-3.364921e-10
4.663554e-09
-4.727181e-10
6.105002e-09
-6.056319e-10
7.660984e-09
-7.608329e-10
-1.241952e-09
9.641462e-09
9.149333e-10
-7.776453e-11
1.908869e-09
-2.11426e-10
3.05969e-09
-3.633407e-10
4.415139e-09
-5.575177e-10
5.877133e-09
-6.707141e-10
7.490008e-09
-8.660142e-10
-1.995953e-09
1.000962e-08
7.495473e-10
-7.379173e-11
1.640375e-09
-2.088092e-10
2.873268e-09
-4.984418e-10
4.271058e-09
-5.945166e-10
5.90684e-09
-7.71119e-10
7.701519e-09
-9.688198e-10
-1.218958e-09
8.760888e-09
5.781095e-10
-6.85783e-11
1.365042e-09
-2.000615e-10
2.202792e-09
-3.54788e-10
3.306467e-09
-5.201135e-10
4.5792e-09
-7.057794e-10
5.972215e-09
-8.935762e-10
-1.071448e-09
7.412036e-09
4.016525e-10
-5.27318e-11
9.943823e-10
-1.611436e-10
1.786844e-09
-2.858637e-10
2.779044e-09
-4.343947e-10
3.929997e-09
-6.035004e-10
5.19823e-09
-7.761566e-10
-1.017418e-09
6.657392e-09
2.827247e-10
-3.861939e-11
7.242257e-10
-1.19507e-10
1.380205e-09
-2.163397e-10
2.239213e-09
-3.40277e-10
3.278213e-09
-5.022753e-10
4.453452e-09
-6.685982e-10
-1.322249e-09
6.337385e-09
2.067371e-10
-2.776571e-11
4.946679e-10
-8.147165e-11
9.958964e-10
-1.492557e-10
1.715668e-09
-2.575136e-10
2.831087e-09
-5.330288e-10
3.999767e-09
-5.846382e-10
-7.505331e-10
4.882537e-09
1.636879e-10
-1.793908e-11
3.373346e-10
-5.103687e-11
6.717563e-10
-9.488267e-11
1.312094e-09
-2.188284e-10
2.016551e-09
-3.160158e-10
2.907302e-09
-4.490542e-10
-6.077866e-10
3.919386e-09
1.301273e-10
-9.478533e-12
2.602399e-10
-3.350371e-11
4.595206e-10
-5.87707e-11
8.507867e-10
-1.163048e-10
1.43053e-09
-2.155234e-10
2.1777e-09
-3.588128e-10
-6.649612e-10
3.305436e-09
1.014654e-10
-4.1347e-12
1.986393e-10
-1.564603e-11
3.090474e-10
-3.292899e-11
5.32215e-10
-7.119393e-11
9.450997e-10
-1.528528e-10
1.626297e-09
-3.364955e-10
-4.144089e-10
2.280151e-09
7.247284e-11
-1.086154e-12
1.478331e-10
-6.681256e-12
2.297889e-10
-1.8344e-11
3.437e-10
-4.788495e-11
6.081286e-10
-1.264153e-10
9.940178e-10
-2.078927e-10
-3.382628e-10
1.585301e-09
4.948116e-11
3.948737e-14
1.046598e-10
-2.329253e-12
1.666906e-10
-1.030999e-11
2.52063e-10
-3.784329e-11
3.572997e-10
-7.687659e-11
5.811928e-10
-1.46345e-10
-2.475069e-10
9.673221e-10
3.38868e-11
4.418035e-13
7.25276e-11
-1.104497e-13
1.191235e-10
-6.627881e-12
1.687824e-10
-1.883445e-11
2.368358e-10
-4.824463e-11
3.525499e-10
-1.041075e-10
-1.62606e-10
5.596266e-10
2.54951e-11
6.617194e-13
5.381674e-11
8.900956e-13
8.171544e-11
-7.450948e-13
1.144038e-10
-7.975921e-12
1.619728e-10
-2.674486e-11
2.240443e-10
-5.670559e-11
-1.024674e-10
3.284933e-10
2.103461e-11
6.996307e-13
4.23394e-11
2.309513e-12
6.234679e-11
2.442378e-12
8.349388e-11
-1.553275e-12
1.077181e-10
-9.094722e-12
1.460826e-10
-2.474242e-11
-6.076333e-11
2.312906e-10
1.713649e-11
6.702953e-13
3.479795e-11
2.879167e-12
5.121556e-11
4.39385e-12
6.593055e-11
3.19443e-12
8.030629e-11
3.995984e-13
1.000095e-10
-6.074174e-12
-2.13744e-11
1.378867e-10
1.408588e-11
5.332168e-13
2.878632e-11
2.843779e-12
4.307492e-11
5.056737e-12
5.532807e-11
6.446458e-12
6.655355e-11
5.839235e-12
8.173101e-11
1.329203e-12
2.675242e-12
9.59409e-11
1.164509e-11
3.367081e-13
2.40624e-11
2.382635e-12
3.576763e-11
5.238133e-12
4.670028e-11
7.681278e-12
5.781272e-11
8.211526e-12
6.630272e-11
8.860278e-12
1.147978e-11
7.629865e-11
9.620029e-12
1.315345e-13
1.995234e-11
1.855307e-12
2.98825e-11
4.734695e-12
3.937433e-11
7.695564e-12
4.897004e-11
9.324015e-12
5.683051e-11
1.261886e-11
1.559227e-11
6.507678e-11
7.938467e-12
-5.912121e-14
1.6566e-11
1.33564e-12
2.493685e-11
3.970496e-12
3.377286e-11
6.609449e-12
4.092478e-11
1.02437e-11
4.820635e-11
1.346524e-11
1.679544e-11
5.545833e-11
6.479038e-12
-2.016783e-13
1.37022e-11
8.471724e-13
2.073262e-11
3.187015e-12
2.774013e-11
5.885086e-12
3.427563e-11
9.593509e-12
4.06324e-11
1.294114e-11
1.630363e-11
4.682301e-11
5.267274e-12
-3.033488e-13
1.132898e-11
4.362679e-13
1.754396e-11
2.288872e-12
2.313797e-11
5.317877e-12
2.872143e-11
8.577698e-12
3.420755e-11
1.181577e-11
1.501324e-11
3.957365e-11
4.265819e-12
-3.659748e-13
9.497615e-12
5.360519e-14
1.441836e-11
1.866383e-12
1.930066e-11
4.504945e-12
2.412437e-11
7.480715e-12
2.89123e-11
1.050227e-11
1.345803e-11
3.367996e-11
3.445283e-12
-3.987215e-13
7.790914e-12
-1.391209e-13
1.199524e-11
1.421625e-12
1.618608e-11
3.754259e-12
2.037302e-11
6.44772e-12
2.460415e-11
9.205616e-12
1.188471e-11
2.891374e-11
2.812414e-12
-4.168939e-13
6.464084e-12
-2.324807e-13
1.004168e-11
1.070884e-12
1.365551e-11
3.122552e-12
1.731926e-11
5.530713e-12
2.108902e-11
8.007299e-12
1.040975e-11
2.501023e-11
2.252574e-12
-4.060165e-13
5.3785e-12
-3.048932e-13
8.454353e-12
8.039093e-13
1.159457e-11
2.604333e-12
1.481988e-11
4.737104e-12
1.818321e-11
6.928606e-12
9.034189e-12
2.174499e-11
1.806872e-12
-3.852628e-13
4.500271e-12
-3.426156e-13
7.161922e-12
6.062505e-13
9.909271e-12
2.184837e-12
1.275916e-11
4.065242e-12
1.575254e-11
5.985406e-12
7.764823e-12
1.907067e-11
1.44212e-12
-3.575263e-13
3.782828e-12
-3.548572e-13
6.103828e-12
4.625714e-13
8.525451e-12
1.848847e-12
1.106088e-11
3.507732e-12
1.37386e-11
5.200047e-12
6.763937e-12
1.673806e-11
1.142005e-12
-3.270848e-13
3.191247e-12
-3.497364e-13
5.229823e-12
3.590743e-13
7.382103e-12
1.579765e-12
9.659818e-12
3.047435e-12
1.208977e-11
4.546637e-12
5.921466e-12
1.484405e-11
8.911096e-13
-2.963076e-13
2.696161e-12
-3.341782e-13
4.49798e-12
2.841494e-13
6.425385e-12
1.362325e-12
8.489994e-12
2.66386e-12
1.072625e-11
3.996543e-12
5.222775e-12
1.327419e-11
6.775685e-13
-2.664942e-13
2.274235e-12
-3.128337e-13
3.873758e-12
2.29532e-13
5.60928e-12
1.185119e-12
7.495671e-12
2.34066e-12
9.641981e-12
3.505362e-12
4.681525e-12
1.194504e-11
4.917576e-13
-2.384249e-13
1.907051e-12
-2.889058e-13
3.330246e-12
1.888238e-13
4.898145e-12
1.038281e-12
6.624626e-12
2.071003e-12
8.61756e-12
3.123573e-12
4.180053e-12
1.078298e-11
3.267304e-13
-2.126512e-13
1.58049e-12
-2.648383e-13
2.84619e-12
1.570859e-13
4.264598e-12
9.128457e-13
5.851123e-12
1.836101e-12
7.708162e-12
2.777307e-12
3.722701e-12
9.741667e-12
1.769035e-13
-1.893916e-13
1.283866e-12
-2.419358e-13
2.406117e-12
1.310306e-13
3.687535e-12
8.024906e-13
5.148746e-12
1.624837e-12
6.874354e-12
2.469258e-12
3.312952e-12
8.788163e-12
3.840679e-14
-1.685385e-13
1.009349e-12
-2.20416e-13
1.997962e-12
1.098751e-13
3.152408e-12
7.06559e-13
4.530797e-12
1.430776e-12
6.099619e-12
2.220406e-12
2.949172e-12
7.899368e-12
-9.220407e-14
-1.49811e-13
7.50066e-13
-2.000743e-13
1.612026e-12
9.355887e-14
2.643955e-12
6.26986e-13
3.905879e-12
1.283106e-12
5.363784e-12
1.986644e-12
2.62793e-12
7.058091e-12
-2.180568e-13
-1.328248e-13
5.000246e-13
-1.803235e-13
1.23996e-12
8.215465e-14
2.155269e-12
5.600833e-13
3.3044e-12
1.150279e-12
4.656116e-12
1.774024e-12
2.344299e-12
6.249977e-12
-3.420213e-13
-1.170491e-13
2.53728e-13
-1.598308e-13
8.73728e-13
7.742185e-14
1.674569e-12
5.085456e-13
2.712063e-12
1.042411e-12
3.962223e-12
1.594839e-12
2.101112e-12
5.460639e-12
-4.670005e-13
-1.017449e-13
5.375122e-15
-1.368531e-13
5.045443e-13
8.098601e-14
1.19125e-12
4.719009e-13
2.117702e-12
9.594819e-13
3.268649e-12
1.450915e-12
1.900516e-12
4.675479e-12
-5.962771e-13
-8.602359e-14
-2.516854e-13
-1.084253e-13
1.222561e-13
9.90591e-14
6.927123e-13
4.707097e-13
1.506878e-12
9.063642e-13
2.559962e-12
1.34759e-12
1.746093e-12
3.878669e-12
-7.341863e-13
-6.865055e-14
-5.258332e-13
-7.08524e-14
-2.84275e-13
1.370274e-13
1.716113e-13
5.0038e-13
8.626969e-13
8.967916e-13
1.818285e-12
1.291234e-12
1.641627e-12
3.0527e-12
-8.862336e-13
-4.786083e-14
-8.279559e-13
-1.904845e-14
-7.30467e-13
2.008409e-13
-4.080771e-13
5.637349e-13
1.65791e-13
9.285072e-13
1.023781e-12
1.285557e-12
1.591488e-12
2.177688e-12
-1.060233e-12
-2.097172e-14
-1.172802e-12
5.527118e-14
-1.2372e-12
3.033567e-13
-1.062442e-12
6.806441e-13
-6.105434e-13
1.020046e-12
1.507578e-13
1.341543e-12
1.601781e-12
1.230722e-12
-1.26686e-12
1.630916e-14
-1.581675e-12
1.646232e-13
-1.833774e-12
4.626648e-13
-1.823589e-12
8.709517e-13
-1.499851e-12
1.18768e-12
-8.317575e-13
1.470723e-12
1.67878e-12
1.850164e-13
-1.523378e-12
7.105278e-14
-2.086651e-12
3.296775e-13
-2.562413e-12
7.070692e-13
-2.737716e-12
1.163295e-12
-2.546445e-12
1.452844e-12
-1.962317e-12
1.686271e-12
1.827658e-12
-9.902915e-13
-1.856839e-12
1.5612e-13
-2.737253e-12
5.873627e-13
-3.486052e-12
1.082902e-12
-3.870245e-12
1.599525e-12
-3.809324e-12
1.842997e-12
-3.288373e-12
2.001339e-12
2.05007e-12
-2.329742e-12
-2.312291e-12
2.984288e-13
-3.614049e-12
1.006186e-12
-4.706309e-12
1.668948e-12
-5.315361e-12
2.232152e-12
-5.366298e-12
2.388802e-12
-4.866872e-12
2.424425e-12
2.339195e-12
-3.864301e-12
-2.969713e-12
5.610967e-13
-4.858011e-12
1.726032e-12
-6.458729e-12
2.682633e-12
-7.216771e-12
3.059377e-12
-7.318699e-12
3.11135e-12
-6.755146e-12
2.949558e-12
2.458045e-12
-5.443545e-12
-3.984359e-12
1.109683e-12
-6.703509e-12
3.019257e-12
-8.753799e-12
4.191739e-12
-9.74848e-12
4.313847e-12
-9.779223e-12
4.026737e-12
-8.716853e-12
3.202939e-12
2.704059e-12
-7.313889e-12
-5.680275e-12
2.430662e-12
-9.608958e-12
5.461698e-12
-1.219051e-11
6.544527e-12
-1.31618e-11
5.98033e-12
-1.24427e-11
4.57689e-12
-1.120268e-11
3.637676e-12
2.851653e-12
-9.38438e-12
-8.798286e-12
6.055168e-12
-1.444018e-11
1.020977e-11
-1.729518e-11
1.005993e-11
-1.715027e-11
7.245785e-12
-1.599011e-11
5.310116e-12
-1.400728e-11
3.838812e-12
2.780868e-12
-1.159144e-11
-1.515627e-11
1.934522e-11
-2.279924e-11
1.98072e-11
-2.40342e-11
1.35508e-11
-2.269265e-11
8.492591e-12
-2.006411e-11
5.437144e-12
-1.698444e-11
3.541922e-12
2.352272e-12
-1.378516e-11
-3.210618e-11
5.943965e-11
-3.724528e-11
3.493685e-11
-3.395249e-11
1.5778e-11
-2.914554e-11
7.738371e-12
-2.427809e-11
4.268952e-12
-1.97934e-11
2.466931e-12
1.462639e-12
-1.571676e-11
-8.58991e-11
-6.488961e-11
-4.614963e-11
-3.523787e-11
-2.775037e-11
-2.189094e-11
-1.705842e-11
-1.329513e-11
-1.072904e-12
-9.734446e-12
-9.198122e-13
-3.46657e-12
-7.97648e-13
-3.473399e-12
-2.926146e-12
-2.412693e-13
2.510303e-12
-2.204453e-12
-2.366696e-13
2.015462e-12
-1.926851e-12
-2.194412e-13
1.936566e-12
-2.149493e-12
-2.19562e-13
-1.303274e-11
-2.030961e-12
-9.554271e-12
-1.644054e-12
-3.425079e-12
-1.368103e-12
-3.372492e-12
3.622653e-13
-2.901066e-12
-4.712198e-13
3.486942e-13
2.483617e-12
-2.170717e-12
-4.621227e-13
3.070836e-13
1.978215e-12
-1.886765e-12
-3.93901e-13
3.000521e-13
1.893062e-12
-2.10389e-12
-3.79238e-13
-1.21145e-11
-2.762899e-12
-8.891189e-12
-2.242887e-12
-6.341439e-12
-1.874604e-12
-2.302325e-12
-8.458056e-13
5.953944e-13
5.794481e-13
-2.209803e-12
-7.54757e-13
5.69876e-13
-2.002423e-12
-6.686198e-13
4.785411e-13
1.808414e-12
-1.715193e-12
-5.600621e-13
4.574983e-13
1.717072e-12
-1.91836e-12
-5.340248e-13
-1.069809e-11
-3.216148e-12
-7.808198e-12
-2.671334e-12
-2.77953e-12
-2.266207e-12
-2.628463e-12
-2.34358e-12
-9.485961e-13
7.611125e-13
1.97156e-12
-1.681838e-12
-8.514326e-13
6.381942e-13
1.504569e-12
-1.418197e-12
-7.130279e-13
6.077525e-13
1.419569e-12
-1.613529e-12
-6.786097e-13
-8.993604e-12
-3.422657e-12
-6.463581e-12
-2.934822e-12
-2.250009e-12
-2.544317e-12
-2.062982e-12
1.019408e-12
-1.862772e-12
-1.090908e-12
9.400621e-13
1.517369e-12
-1.250561e-12
-1.020535e-12
7.844152e-13
1.092821e-12
-1.016584e-12
-8.518543e-13
7.464854e-13
1.019936e-12
-1.21042e-12
-8.113367e-13
-7.181828e-12
-3.453477e-12
-4.982769e-12
-3.070253e-12
-1.635756e-12
-2.7369e-12
-1.429643e-12
1.155097e-12
-1.295883e-12
-1.211983e-12
1.092617e-12
-7.432677e-13
-1.156823e-12
9.844613e-13
9.151342e-13
6.032828e-13
-5.360827e-13
-9.744536e-13
8.729786e-13
5.411607e-13
-7.287539e-13
-9.315762e-13
-5.390217e-12
-3.385246e-12
-3.460756e-12
-3.121966e-12
-9.788019e-13
-2.866489e-12
-7.643774e-13
-6.736047e-13
-1.311274e-12
1.262136e-12
1.211612e-12
3.033249e-13
-1.787092e-13
-1.18565e-12
1.030198e-12
5.764127e-14
1.89369e-15
-1.082397e-12
9.875777e-13
4.137095e-15
-1.879933e-13
-1.041357e-12
-3.688968e-12
-3.35272e-12
-1.964172e-12
-3.132936e-12
-3.08708e-13
-2.960407e-12
-9.232751e-14
1.349204e-12
-4.179932e-14
-1.383887e-12
1.225552e-12
4.102803e-13
-1.269295e-12
-2.327885e-13
1.131474e-12
-5.234431e-13
5.77504e-13
-1.17803e-12
1.09252e-12
-5.719986e-13
3.911971e-13
-1.139481e-12
-2.107534e-12
-3.199438e-12
-5.274617e-13
-3.108958e-12
3.552005e-13
-3.046139e-12
5.682993e-13
6.005985e-13
-1.447837e-12
1.416321e-12
1.311362e-12
-8.558239e-13
1.019388e-12
-1.352597e-12
1.223084e-12
-1.124045e-12
1.174908e-12
-1.267718e-12
1.184035e-12
-1.17127e-12
9.975891e-13
-1.229348e-12
-5.735918e-13
-3.089373e-12
9.311229e-13
-3.087844e-12
1.001732e-12
-3.023897e-12
1.208281e-12
1.479667e-12
1.233404e-12
-1.5128e-12
1.394044e-12
-1.476625e-12
1.631446e-12
-1.436753e-12
1.312902e-12
-1.731377e-12
1.781508e-12
-1.359354e-12
1.275819e-12
-1.780799e-12
1.612405e-12
-1.323591e-12
8.194662e-13
-3.037492e-12
2.290266e-12
-3.108384e-12
1.705633e-12
-3.109391e-12
1.923478e-12
1.548181e-12
1.849411e-12
-1.504525e-12
1.48154e-12
-2.086732e-12
2.2377e-12
-1.529239e-12
1.407877e-12
-2.33625e-12
2.38806e-12
-1.459282e-12
1.373407e-12
-2.391694e-12
2.228829e-12
-1.425694e-12
2.087234e-12
-3.049456e-12
3.563833e-12
-3.181319e-12
2.343984e-12
-3.238523e-12
2.556547e-12
1.536893e-12
2.562963e-12
-1.57471e-12
1.580618e-12
-2.793089e-12
2.832068e-12
-1.522471e-12
1.514124e-12
-2.933764e-12
2.989244e-12
-1.573063e-12
1.481552e-12
-2.998461e-12
2.841678e-12
-1.541525e-12
3.253755e-12
-3.126075e-12
4.761668e-12
-3.31175e-12
2.957489e-12
-3.419632e-12
3.164507e-12
1.617933e-12
3.182474e-12
-1.667926e-12
1.573139e-12
-3.414783e-12
3.561197e-12
-1.630049e-12
1.63684e-12
-3.6575e-12
3.581036e-12
-1.568618e-12
1.606142e-12
-3.59819e-12
3.447313e-12
-1.676251e-12
4.343024e-12
-3.265573e-12
5.900718e-12
-3.501724e-12
3.549971e-12
-3.657025e-12
3.753142e-12
1.724034e-12
3.78462e-12
-1.787566e-12
1.692819e-12
-4.024201e-12
4.175192e-12
-1.76251e-12
1.634242e-12
-4.27477e-12
4.331735e-12
-1.706514e-12
1.752489e-12
-4.344581e-12
4.039993e-12
-1.681096e-12
5.378247e-12
-3.46575e-12
6.99927e-12
-3.751234e-12
4.128053e-12
-3.953388e-12
4.329974e-12
1.857858e-12
4.374815e-12
-1.935898e-12
1.838622e-12
-4.624336e-12
4.781269e-12
-1.922331e-12
1.784901e-12
-4.885333e-12
4.946124e-12
-1.869997e-12
1.761929e-12
-4.960471e-12
4.802774e-12
-1.848211e-12
6.38064e-12
-3.723694e-12
8.076241e-12
-4.059977e-12
4.699601e-12
-4.309687e-12
4.903235e-12
2.020918e-12
4.960546e-12
-2.114401e-12
2.013088e-12
-5.221999e-12
5.385376e-12
-2.111674e-12
1.96145e-12
-5.493912e-12
5.557467e-12
-2.060295e-12
1.939617e-12
-5.572297e-12
5.40952e-12
-2.038297e-12
7.370426e-12
-4.037051e-12
9.150407e-12
-4.427056e-12
5.273924e-12
-4.727962e-12
5.483383e-12
2.214726e-12
5.550201e-12
-2.322858e-12
2.218127e-12
-5.819561e-12
5.996221e-12
-2.333884e-12
2.16601e-12
-6.108936e-12
6.175002e-12
-2.279552e-12
2.143922e-12
-6.189873e-12
6.022898e-12
-2.257157e-12
8.364848e-12
-4.403377e-12
1.023907e-11
-4.851321e-12
5.861108e-12
-5.20695e-12
6.077855e-12
2.440496e-12
6.157882e-12
-2.56758e-12
2.457746e-12
-6.42306e-12
6.623899e-12
-2.593706e-12
2.400771e-12
-6.738782e-12
6.806899e-12
-2.530837e-12
2.377537e-12
-6.820668e-12
6.647917e-12
-2.506409e-12
9.379917e-12
-4.821224e-12
1.135651e-11
-5.330535e-12
6.466181e-12
-5.743688e-12
6.693096e-12
2.700215e-12
6.783051e-12
-2.841199e-12
2.734973e-12
-7.061653e-12
7.275313e-12
-2.8856e-12
2.668642e-12
-7.393146e-12
7.460907e-12
-2.814722e-12
2.642254e-12
-7.471071e-12
7.29057e-12
-2.785961e-12
1.042923e-11
-5.291548e-12
1.251616e-11
-5.863561e-12
7.097207e-12
-6.335435e-12
7.336321e-12
2.988915e-12
7.43678e-12
-3.144807e-12
3.044949e-12
-7.733811e-12
7.960179e-12
-3.213523e-12
2.968969e-12
-8.081807e-12
8.147943e-12
-3.132051e-12
2.937141e-12
-8.148437e-12
7.947135e-12
-3.098698e-12
1.152644e-11
-5.816904e-12
1.372882e-11
-6.450105e-12
7.759079e-12
-6.976239e-12
8.010735e-12
3.306783e-12
8.12493e-12
-3.476134e-12
3.389919e-12
-8.443316e-12
8.6861e-12
-3.574516e-12
3.302737e-12
-8.814277e-12
8.88206e-12
-3.481396e-12
3.269674e-12
-8.877968e-12
8.645136e-12
-3.449653e-12
1.268822e-11
-6.404792e-12
1.500364e-11
-7.094249e-12
8.451806e-12
-7.65892e-12
8.713743e-12
3.649713e-12
8.845377e-12
-3.827634e-12
3.764958e-12
-9.189007e-12
9.453371e-12
-3.962044e-12
3.665584e-12
-9.591846e-12
9.663727e-12
-3.855822e-12
3.635809e-12
-9.657127e-12
9.395855e-12
-3.82766e-12
1.394205e-11
-7.070651e-12
1.635941e-11
-7.816707e-12
9.172928e-12
-8.408681e-12
9.448722e-12
4.005642e-12
9.590762e-12
-4.176315e-12
4.162553e-12
-9.961949e-12
1.024753e-11
-4.357147e-12
4.049754e-12
-1.041044e-11
1.049032e-11
-4.247611e-12
4.023725e-12
-1.048159e-11
1.019105e-11
-4.224127e-12
1.534337e-11
-7.856634e-12
1.786751e-11
-8.657342e-12
2.016824e-11
-9.288597e-12
1.083307e-11
-4.850114e-12
4.461269e-12
4.374315e-12
1.116452e-11
-4.864244e-12
4.510919e-12
1.105011e-11
-4.686892e-12
4.456045e-12
-1.127428e-11
1.136524e-11
-4.670621e-12
4.426361e-12
-1.13526e-11
1.10268e-11
-4.633488e-12
1.696802e-11
-8.796727e-12
1.964541e-11
-9.652883e-12
1.089101e-11
-1.030708e-11
1.126044e-11
1.133756e-11
-5.087049e-12
4.907498e-12
-1.175063e-11
1.203955e-11
-5.143901e-12
4.883848e-12
-1.223796e-11
1.23112e-11
-5.102866e-12
4.842918e-12
-1.228384e-11
1.19061e-11
-5.057186e-12
1.887687e-11
-9.948052e-12
2.169715e-11
-1.0857e-11
1.194677e-11
-1.147901e-11
1.235491e-11
5.331239e-12
1.24032e-11
-5.596264e-12
5.388782e-12
-1.282401e-11
1.310241e-11
-5.639039e-12
5.326827e-12
-1.327725e-11
1.332961e-11
-5.557058e-12
5.274688e-12
-1.327846e-11
1.28315e-11
-5.497367e-12
2.117856e-11
-1.138074e-11
2.412124e-11
-1.237424e-11
1.313859e-11
-1.290911e-11
1.360516e-11
5.876891e-12
1.357268e-11
-6.181553e-12
5.894049e-12
-1.398072e-11
1.423909e-11
-6.161912e-12
5.792804e-12
-1.437357e-11
1.441329e-11
-6.04956e-12
5.725403e-12
-1.433291e-11
1.378884e-11
-5.961592e-12
2.402933e-11
-1.318749e-11
2.708737e-11
-7.122363e-12
-7.230937e-12
1.45437e-11
-7.374634e-12
1.509741e-11
-7.330649e-12
6.512726e-12
1.491349e-11
-6.879718e-12
6.445141e-12
-1.527753e-11
1.549724e-11
-6.752887e-12
6.371645e-12
-1.554348e-11
1.557099e-11
-6.697086e-12
6.208297e-12
-1.545414e-11
1.47703e-11
-6.470172e-12
1.347095e-11
-1.529991e-11
1.416722e-11
1.419432e-11
-7.65351e-12
-1.496187e-11