/*--------------------------------*- C++ -*----------------------------------*\
| =========                 |                                                 |
| \\      /  F ield         | OpenFOAM: The Open Source CFD Toolbox           |
|  \\    /   O peration     | Version:  2206                                  |
|   \\  /    A nd           | Website:  www.openfoam.com                      |
|    \\/     M anipulation  |                                                 |
\*---------------------------------------------------------------------------*/
FoamFile
{
    version     2.0;
    format      ascii;
    arch        "LSB;label=32;scalar=64";
    class       volVectorField;
    location    "1.8";
    object      U;
}
// * * * * * * * * * * * * * * * * * * * * * * * * * * * * * * * * * * * * * //

dimensions      [0 1 -1 0 0 0 0];

internalField   nonuniform List<vector> 
13078
(
(-6.757853e-08 -4.456552e-05 -6.976194e-28)
(-2.26189e-06 -8.11877e-06 2.184916e-30)
(-2.152601e-06 -7.852664e-06 9.082637e-28)
(-2.243608e-06 -6.819977e-06 0)
(-2.306995e-06 -7.110212e-06 1.432809e-28)
(-2.366461e-06 -7.049013e-06 7.202073e-29)
(-2.420789e-06 -7.073194e-06 1.509412e-29)
(-1.031613e-05 -2.048972e-05 0)
(-8.995012e-06 -6.670144e-06 -6.692328e-30)
(-3.929015e-06 -5.254591e-06 0)
(-2.950353e-06 -6.13127e-06 0)
(-2.584457e-06 -6.626109e-06 7.314744e-31)
(-2.456389e-06 -6.796831e-06 5.386842e-31)
(-2.424762e-06 -6.929156e-06 1.282117e-30)
(9.962719e-06 -3.568042e-06 1.073813e-27)
(8.339678e-07 -3.01537e-06 -5.610966e-28)
(-1.814833e-06 -4.11976e-06 -2.531171e-28)
(-2.2319e-06 -5.095213e-06 -3.668087e-28)
(-2.25526e-06 -5.753917e-06 -1.1595e-28)
(-2.254672e-06 -6.208497e-06 0)
(-2.273579e-06 -6.533691e-06 4.596966e-35)
(8.952791e-06 -5.365451e-07 6.071683e-28)
(3.091626e-06 -1.236636e-06 -8.315664e-28)
(2.437604e-07 -2.716703e-06 -5.103021e-28)
(-1.001741e-06 -3.88901e-06 -1.382269e-28)
(-1.489932e-06 -4.804574e-06 1.567074e-30)
(-1.749291e-06 -5.499429e-06 0)
(-1.919832e-06 -6.021581e-06 -3.922968e-31)
(7.403915e-06 -7.133008e-08 1.251457e-30)
(4.137674e-06 -4.65275e-07 -3.332068e-28)
(1.790614e-06 -1.703441e-06 -4.82252e-28)
(3.460312e-07 -2.933148e-06 -3.016606e-28)
(-5.26226e-07 -3.980609e-06 1.580239e-28)
(-1.025966e-06 -4.847399e-06 -1.941861e-33)
(-1.38694e-06 -5.524115e-06 1.511006e-29)
(6.91525e-06 -3.739923e-08 0)
(4.881237e-06 -2.805523e-07 -3.630079e-30)
(3.006044e-06 -1.252833e-06 4.219774e-30)
(1.573845e-06 -2.364344e-06 -1.790122e-28)
(5.550186e-07 -3.430121e-06 -4.26426e-30)
(-1.922891e-07 -4.351157e-06 4.333077e-30)
(-7.236401e-07 -5.136124e-06 -6.171764e-29)
(6.779062e-06 -1.141527e-07 0)
(5.459364e-06 -3.592551e-07 -3.072841e-28)
(3.998488e-06 -1.165424e-06 -2.190023e-28)
(2.687342e-06 -2.131876e-06 2.970751e-29)
(1.601381e-06 -3.146904e-06 -1.518495e-28)
(7.33983e-07 -4.086388e-06 2.211129e-30)
(7.650373e-09 -4.896842e-06 0)
(6.908146e-06 -2.084253e-07 6.735383e-28)
(6.004584e-06 -5.341876e-07 -3.140436e-28)
(4.856296e-06 -1.268057e-06 -2.757091e-28)
(3.685106e-06 -2.157715e-06 0)
(2.59887e-06 -3.108504e-06 -3.636696e-28)
(1.652039e-06 -4.023978e-06 4.903117e-30)
(8.179015e-07 -4.857004e-06 8.434963e-30)
(7.252269e-06 -2.998214e-07 2.597861e-32)
(6.595484e-06 -7.38681e-07 6.611773e-28)
(5.665922e-06 -1.482019e-06 3.000021e-28)
(4.616112e-06 -2.338023e-06 2.328824e-30)
(3.55437e-06 -3.25222e-06 -8.528156e-28)
(2.560842e-06 -4.14815e-06 7.629696e-30)
(1.634382e-06 -4.981189e-06 0)
(7.784421e-06 -3.84437e-07 -7.40816e-28)
(7.275824e-06 -9.518006e-07 7.110475e-28)
(6.488995e-06 -1.753907e-06 3.283251e-28)
(5.529875e-06 -2.623645e-06 -5.815794e-28)
(4.491704e-06 -3.534428e-06 -2.081455e-31)
(3.464767e-06 -4.427061e-06 0)
(2.462334e-06 -5.264532e-06 0)
(8.491457e-06 -4.655577e-07 0)
(8.069802e-06 -1.170896e-06 0)
(7.370483e-06 -2.063619e-06 7.263459e-28)
(6.468064e-06 -2.985606e-06 -6.546507e-28)
(5.439797e-06 -3.925673e-06 2.903513e-31)
(4.378992e-06 -4.837097e-06 0)
(3.305811e-06 -5.690811e-06 0)
(9.368301e-06 -5.466918e-07 0)
(8.995344e-06 -1.399006e-06 -8.567708e-28)
(8.34279e-06 -2.405516e-06 8.088847e-28)
(7.465215e-06 -3.410362e-06 7.274583e-28)
(6.427628e-06 -4.4093e-06 -6.695812e-28)
(5.323596e-06 -5.363154e-06 0)
(4.176105e-06 -6.24947e-06 5.025744e-28)
(1.041737e-05 -6.305425e-07 0)
(1.006798e-05 -1.640757e-06 -9.582292e-28)
(9.431528e-06 -2.780799e-06 -8.375173e-30)
(8.550286e-06 -3.893839e-06 8.31283e-28)
(7.482866e-06 -4.97822e-06 -7.488111e-28)
(6.320184e-06 -5.998072e-06 6.519441e-28)
(5.088511e-06 -6.935238e-06 6.199321e-31)
(1.164716e-05 -7.196575e-07 -1.094006e-27)
(1.130353e-05 -1.901409e-06 0)
(1.065919e-05 -3.193979e-06 -1.01297e-29)
(9.746576e-06 -4.437364e-06 -1.416704e-29)
(8.633127e-06 -5.63036e-06 -1.704763e-27)
(7.390174e-06 -6.740982e-06 7.497815e-28)
(6.060465e-06 -7.747767e-06 -6.351986e-28)
(1.307122e-05 -8.162729e-07 -1.227012e-27)
(1.272034e-05 -2.186807e-06 0)
(1.205055e-05 -3.654447e-06 -2.387974e-29)
(1.108434e-05 -5.059291e-06 1.286821e-27)
(9.925154e-06 -6.356176e-06 -6.409285e-28)
(8.559436e-06 -7.591861e-06 0)
(7.111214e-06 -8.690316e-06 7.330059e-28)
(1.470743e-05 -9.222179e-07 0)
(1.433794e-05 -2.500606e-06 -1.345887e-27)
(1.362576e-05 -4.159076e-06 0)
(1.260548e-05 -5.723364e-06 1.245088e-27)
(1.133146e-05 -7.203865e-06 4.900024e-29)
(9.843869e-06 -8.566638e-06 5.949648e-29)
(8.259244e-06 -9.772974e-06 9.12745e-28)
(1.657845e-05 -1.04002e-06 0)
(1.618035e-05 -2.851118e-06 -3.034787e-27)
(1.540827e-05 -4.728582e-06 -1.602934e-29)
(1.430073e-05 -6.491724e-06 -2.210843e-29)
(1.290317e-05 -8.15416e-06 0)
(1.126901e-05 -9.672155e-06 0)
(9.523865e-06 -1.100705e-05 0)
(1.871206e-05 -1.172118e-06 -1.753649e-27)
(1.827587e-05 -3.244476e-06 -1.718562e-27)
(1.74277e-05 -5.368737e-06 -3.672017e-29)
(1.620817e-05 -7.358973e-06 -2.52552e-29)
(1.466357e-05 -9.225976e-06 0)
(1.285848e-05 -1.09235e-05 -1.338945e-27)
(1.092443e-05 -1.240801e-05 -1.78232e-28)
(2.11414e-05 -1.321066e-06 -1.981953e-27)
(2.065714e-05 -3.688403e-06 -1.940994e-27)
(1.971565e-05 -6.091756e-06 -6.274173e-29)
(1.83598e-05 -8.339576e-06 -5.748203e-29)
(1.663472e-05 -1.043665e-05 0)
(1.464261e-05 -1.233516e-05 -1.433229e-27)
(1.248044e-05 -1.39957e-05 -1.004925e-28)
(2.390574e-05 -1.490025e-06 -2.243768e-27)
(2.336241e-05 -4.191886e-06 -4.37535e-27)
(2.230957e-05 -6.912719e-06 -2.097095e-27)
(2.079615e-05 -9.460302e-06 0)
(1.886038e-05 -1.184545e-05 6.313282e-28)
(1.669293e-05 -1.390524e-05 9.552541e-28)
(1.421915e-05 -1.578865e-05 2.259327e-28)
(2.705117e-05 -1.682163e-06 -2.543025e-27)
(2.643559e-05 -4.76403e-06 -4.941858e-27)
(2.524894e-05 -7.842456e-06 -4.717828e-27)
(2.35501e-05 -1.071263e-05 -2.158111e-27)
(2.141945e-05 -1.335679e-05 9.292057e-29)
(1.893493e-05 -1.574314e-05 -1.803997e-27)
(1.615307e-05 -1.782883e-05 1.47236e-27)
(3.06321e-05 -1.901985e-06 0)
(2.992853e-05 -5.418136e-06 -2.783715e-27)
(2.858223e-05 -8.906594e-06 -2.654357e-27)
(2.665914e-05 -1.215554e-05 -5.049805e-27)
(2.426024e-05 -1.51336e-05 0)
(2.144598e-05 -1.781667e-05 -2.040762e-27)
(1.831278e-05 -2.014346e-05 3.051896e-30)
(3.47123e-05 -2.153892e-06 3.261408e-27)
(3.390219e-05 -6.167334e-06 0)
(3.236711e-05 -1.012404e-05 0)
(3.018036e-05 -1.380347e-05 9.262481e-29)
(2.745699e-05 -1.716274e-05 2.74437e-27)
(2.425245e-05 -2.016963e-05 0)
(2.073577e-05 -2.276044e-05 -2.043174e-27)
(3.936615e-05 -2.442974e-06 7.401431e-27)
(3.842672e-05 -7.02631e-06 0)
(3.666856e-05 -1.151845e-05 0)
(3.417405e-05 -1.569135e-05 3.125757e-27)
(3.107992e-05 -1.950338e-05 5.808054e-27)
(2.743446e-05 -2.294405e-05 -2.651982e-27)
(2.353008e-05 -2.569351e-05 0)
(4.467936e-05 -2.774772e-06 4.202865e-27)
(4.358235e-05 -8.010987e-06 2.752799e-29)
(4.155953e-05 -1.31137e-05 3.945196e-27)
(3.870165e-05 -1.784157e-05 1.22395e-28)
(3.517514e-05 -2.212784e-05 1.565788e-28)
(3.110144e-05 -2.591304e-05 -3.007576e-27)
(2.656052e-05 -2.913262e-05 0)
(5.075038e-05 -3.155336e-06 0)
(4.946157e-05 -9.139709e-06 -4.634874e-27)
(4.712488e-05 -1.494154e-05 4.42745e-27)
(4.383936e-05 -2.030868e-05 0)
(3.979447e-05 -2.516301e-05 -3.459626e-27)
(3.514311e-05 -2.942344e-05 8.173961e-28)
(2.99228e-05 -3.303551e-05 4.637379e-28)
(5.769087e-05 -3.590696e-06 -5.432498e-27)
(5.617042e-05 -1.043101e-05 -5.270328e-27)
(5.346242e-05 -1.703166e-05 5.022898e-27)
(4.967818e-05 -2.312736e-05 0)
(4.50295e-05 -2.862573e-05 -3.944059e-28)
(3.96857e-05 -3.342654e-05 -5.344791e-31)
(3.367007e-05 -3.746562e-05 5.253667e-28)
(6.562422e-05 -4.087124e-06 -6.186126e-27)
(6.383253e-05 -1.190002e-05 -5.991572e-27)
(6.068232e-05 -1.941534e-05 5.712442e-27)
(5.631842e-05 -2.634318e-05 0)
(5.096983e-05 -3.258119e-05 0)
(4.483601e-05 -3.803643e-05 -4.345517e-27)
(3.795918e-05 -4.270724e-05 -8.645105e-28)
(7.468927e-05 -4.642931e-06 -7.061569e-27)
(7.258274e-05 -1.356531e-05 -6.872771e-27)
(6.89088e-05 -2.212621e-05 0)
(6.387588e-05 -3.00023e-05 5.645572e-27)
(5.771028e-05 -3.707557e-05 -5.131955e-28)
(5.063116e-05 -4.318095e-05 -9.23823e-27)
(4.275405e-05 -4.812034e-05 2.02164e-27)
(8.501855e-05 -5.299021e-06 -8.031027e-27)
(8.262485e-05 -1.538153e-05 0)
(7.8301e-05 -2.51751e-05 -7.561654e-27)
(7.249927e-05 -3.416286e-05 6.663014e-27)
(6.540688e-05 -4.224687e-05 -6.278403e-27)
(5.722123e-05 -4.926916e-05 -1.113716e-26)
(4.802724e-05 -5.502599e-05 -4.745529e-27)
(9.69061e-05 -5.951765e-06 0)
(9.395155e-05 -1.750227e-05 0)
(8.901792e-05 -2.859483e-05 -1.68469e-26)
(8.236026e-05 -3.885365e-05 0)
(7.425892e-05 -4.811875e-05 -1.429932e-26)
(6.489095e-05 -5.625083e-05 -6.330638e-27)
(5.431806e-05 -6.307008e-05 5.373154e-27)
(0.0001103952 -6.757525e-06 -1.051069e-26)
(0.0001067814 -1.99443e-05 9.981754e-27)
(0.0001013307 -3.222324e-05 9.483931e-27)
(9.370245e-05 -4.400225e-05 0)
(8.446148e-05 -5.468809e-05 -8.158095e-27)
(7.384352e-05 -6.411348e-05 0)
(6.175388e-05 -7.206221e-05 4.081125e-27)
(0.0001256991 -7.601817e-06 -1.193774e-26)
(0.0001215842 -2.237217e-05 1.156308e-26)
(0.0001150729 -3.663003e-05 3.277526e-26)
(0.0001068917 -4.947115e-05 2.086247e-26)
(9.627487e-05 -6.19244e-05 -8.413153e-27)
(8.436045e-05 -7.296208e-05 1.033539e-27)
(7.061821e-05 -8.249844e-05 -1.173707e-27)
(0.0001429588 -8.538075e-06 2.933196e-29)
(0.0001381124 -2.507374e-05 8.853543e-29)
(0.0001309298 -4.082326e-05 1.313553e-26)
(0.0001215036 -5.572971e-05 2.225239e-26)
(0.0001099567 -6.979353e-05 -1.261898e-26)
(9.679801e-05 -8.274763e-05 2.363516e-27)
(8.148357e-05 -9.431077e-05 5.4147e-27)
(0.0001623822 -9.56793e-06 -3.308845e-29)
(0.0001566015 -2.80953e-05 -1.000081e-28)
(0.0001485384 -4.573625e-05 1.367491e-26)
(0.0001379754 -6.274532e-05 5.840423e-27)
(0.0001260291 -7.781176e-05 -1.066896e-26)
(0.0001116644 -9.317577e-05 8.063511e-27)
(9.492484e-05 -0.0001073455 0)
(0.0001841536 -1.066938e-05 0)
(0.0001772205 -3.127725e-05 0)
(0.0001681631 -5.073095e-05 1.629454e-26)
(0.0001570873 -6.929527e-05 1.723398e-26)
(0.0001439543 -8.751525e-05 2.587472e-26)
(0.0001296658 -0.0001038318 2.383883e-26)
(0.0001114476 -0.0001214651 0)
(0.000208433 -1.184466e-05 -8.329482e-29)
(0.0002000567 -3.464538e-05 2.459953e-28)
(0.0001897685 -5.602279e-05 8.196702e-28)
(0.0001779278 -7.629377e-05 0)
(0.0001646664 -9.593639e-05 3.182922e-26)
(0.0001495451 -0.0001156807 -3.397697e-27)
(0.0001307355 -0.0001358358 -8.045074e-27)
(0.0002353188 -1.30513e-05 -2.246527e-26)
(0.0002252024 -3.809345e-05 2.819002e-28)
(0.0002135512 -6.150512e-05 -2.082221e-26)
(0.0002009021 -8.387016e-05 0)
(0.0001872706 -0.0001058263 2.120636e-26)
(0.0001712427 -0.0001284377 -8.952837e-27)
(0.0001524032 -0.0001483178 -4.415684e-26)
(0.0002647521 -1.421702e-05 -2.535028e-26)
(0.0002528287 -4.141963e-05 -2.425325e-26)
(0.0002397448 -6.706901e-05 -2.349207e-26)
(0.0002259796 -9.139116e-05 -2.803458e-27)
(0.0002113757 -0.0001145588 -7.15407e-27)
(0.0001946761 -0.0001364296 4.812799e-27)
(0.0001737125 -0.0001584894 -2.151458e-26)
(0.0002966502 -1.543426e-05 0)
(0.0002831006 -4.423054e-05 2.676008e-26)
(0.0002681145 -7.183239e-05 2.636131e-26)
(0.0002523005 -9.744906e-05 1.592776e-27)
(0.0002361107 -0.0001213251 -2.680468e-26)
(0.0002185217 -0.0001442885 -5.139921e-27)
(0.0001955411 -0.0001687108 0)
(0.0003309816 -1.603939e-05 3.20485e-26)
(0.000314362 -4.630782e-05 5.891325e-26)
(0.0002971342 -7.308821e-05 2.482241e-26)
(0.0002791078 -9.967926e-05 5.545453e-26)
(0.0002614836 -0.0001251757 -3.01693e-26)
(0.0002434387 -0.0001501378 1.606919e-26)
(0.0002186275 -0.0001753778 -1.509395e-26)
(0.000364438 -1.513335e-05 3.537132e-26)
(0.0003454953 -4.386786e-05 -4.302216e-28)
(0.0003251162 -7.210388e-05 0)
(0.0003072189 -9.833216e-05 1.48156e-27)
(0.0002897998 -0.0001282683 5.656901e-26)
(0.0002716109 -0.0001598094 4.226669e-26)
(0.0002425033 -0.0001965821 9.043193e-27)
(0.0003944038 -1.233524e-05 -3.866551e-26)
(0.0003745422 -3.849422e-05 9.263052e-28)
(0.0003549485 -6.681298e-05 1.569733e-27)
(0.0003378396 -9.907147e-05 -8.380362e-26)
(0.0003239049 -0.0001322147 5.246104e-26)
(0.000305154 -0.0001787744 4.371138e-26)
(0.0002664337 -0.0002398379 2.497401e-27)
(0.0004193184 -8.239718e-06 -4.122255e-26)
(0.0004024674 -3.179522e-05 0)
(0.0003860667 -6.077046e-05 3.319546e-27)
(0.0003744417 -9.623689e-05 4.890192e-27)
(0.000362025 -0.0001458965 1.668785e-26)
(0.0003432089 -0.0002103509 7.396685e-26)
(0.0002978255 -0.0003090033 -2.048572e-26)
(0.0004391744 -4.365222e-06 0)
(0.0004288566 -2.429948e-05 2.051783e-27)
(0.0004174821 -5.282041e-05 3.489517e-27)
(0.0004120284 -9.417396e-05 5.237898e-27)
(0.000403185 -0.0001600333 -2.898636e-26)
(0.0003834876 -0.0002585271 1.609781e-28)
(0.0003396323 -0.0003791853 3.313003e-26)
(0.000453916 -7.465286e-07 0)
(0.0004511187 -1.669856e-05 3.99991e-26)
(0.0004460344 -4.412456e-05 -6.99609e-27)
(0.0004441506 -9.395526e-05 -7.949729e-26)
(0.0004396748 -0.000178361 3.705473e-26)
(0.0004267444 -0.0002972781 5.456998e-27)
(0.0003910005 -0.0004605188 2.664121e-26)
(0.0004610354 3.135538e-06 -4.408474e-26)
(0.0004668759 -7.239702e-06 -5.167166e-28)
(0.0004671546 -3.833618e-05 -2.000939e-27)
(0.000465041 -0.0001009067 -7.61561e-26)
(0.0004643493 -0.0001951607 1.194995e-25)
(0.0004590377 -0.0003274635 5.847257e-26)
(0.0004401612 -0.0004935667 1.231487e-28)
(0.0004585365 7.714982e-06 -4.331866e-26)
(0.0004724235 9.763141e-08 -4.352148e-26)
(0.0004750145 -3.84173e-05 -4.29339e-26)
(0.0004736536 -0.0001102828 -3.669685e-26)
(0.0004737423 -0.000217355 5.506712e-26)
(0.0004721862 -0.0003517772 3.325592e-28)
(0.0004649305 -0.0005203519 -8.450129e-26)
(0.0004459999 1.175104e-05 4.164928e-26)
(0.000465551 3.611056e-06 -1.589011e-27)
(0.0004685278 -4.326797e-05 -8.229062e-26)
(0.0004673005 -0.0001232266 -4.097239e-26)
(0.0004665908 -0.0002328425 -8.671446e-29)
(0.0004645403 -0.0003687928 3.494953e-26)
(0.0004559723 -0.0005358649 4.534494e-26)
(0.0004231124 1.362143e-05 3.868487e-26)
(0.0004457117 2.222965e-06 -3.068048e-29)
(0.0004483662 -5.196184e-05 -5.624934e-26)
(0.000445715 -0.0001383744 2.175519e-26)
(0.0004417685 -0.0002533738 -3.323276e-27)
(0.0004350532 -0.0003925921 -3.884516e-26)
(0.0004213183 -0.0005501258 -4.836644e-26)
(0.0003900395 1.206483e-05 1.746478e-26)
(0.0004146767 -5.292101e-06 -1.609435e-26)
(0.0004164818 -6.280289e-05 -2.593238e-26)
(0.0004110795 -0.0001559484 -3.158623e-26)
(0.0003997073 -0.0002782595 -6.26764e-26)
(0.0003831018 -0.0004221604 -4.281937e-26)
(0.0003618251 -0.0005774539 1.090952e-28)
(0.0003462587 8.777972e-06 1.506143e-26)
(0.0003728784 -1.541221e-05 -2.710887e-26)
(0.0003776249 -8.07851e-05 -1.126182e-28)
(0.0003664915 -0.0001794441 -1.321934e-26)
(0.0003478338 -0.0003122295 4.373544e-27)
(0.000320741 -0.0004657184 -1.886434e-25)
(0.0002836179 -0.0006291627 -2.251936e-25)
(0.0002921421 5.263644e-06 1.205043e-26)
(0.0003197604 -2.309379e-05 -2.299065e-26)
(0.0003239181 -9.185609e-05 -2.698582e-27)
(0.0003124214 -0.0001992921 1.446519e-26)
(0.0002921665 -0.0003416125 4.521605e-26)
(0.0002641438 -0.0005133533 5.085267e-26)
(0.0002288642 -0.0007128516 1.041078e-28)
(0.000229922 1.909048e-06 9.878715e-27)
(0.0002556234 -2.879773e-05 -1.083276e-27)
(0.0002614775 -9.860828e-05 -1.016366e-26)
(0.0002556088 -0.0002106431 1.395231e-26)
(0.0002437309 -0.0003615889 1.137073e-26)
(0.0002281847 -0.0005504613 -1.033455e-31)
(0.0002079172 -0.0007732839 -2.204841e-27)
(0.0001620208 -1.028098e-06 -4.05199e-28)
(0.0001821933 -3.127566e-05 4.751564e-27)
(0.0001900074 -9.880276e-05 -6.017299e-30)
(0.0001917146 -0.0002103378 -2.187217e-27)
(0.0001925316 -0.0003609982 -1.808431e-27)
(0.0001958836 -0.0005496396 -2.8274e-26)
(0.000204581 -0.0007677825 -3.279086e-26)
(8.675262e-05 -3.035421e-06 4.159109e-28)
(9.784061e-05 -3.009541e-05 -1.202253e-27)
(0.0001060108 -9.19321e-05 3.566112e-27)
(0.0001145753 -0.0001971085 7.692851e-27)
(0.0001265243 -0.0003385073 -1.864206e-27)
(0.000144593 -0.0005119341 -4.783439e-30)
(0.0001709226 -0.0007038064 -6.787936e-26)
(3.801743e-06 -9.414296e-07 4.069257e-28)
(3.846353e-06 -2.291573e-05 -1.80866e-27)
(1.00029e-05 -7.819006e-05 -2.318608e-27)
(2.221192e-05 -0.0001740752 1.831517e-26)
(3.984878e-05 -0.0003023381 2.248851e-26)
(6.336702e-05 -0.0004577535 -3.618393e-29)
(9.266486e-05 -0.0006258174 -3.601908e-26)
(-8.197873e-05 4.690978e-06 -2.31037e-30)
(-9.247307e-05 -1.214849e-05 2.971978e-27)
(-8.972521e-05 -6.237069e-05 5.927301e-27)
(-7.717321e-05 -0.0001499934 8.687793e-27)
(-5.872658e-05 -0.0002675632 1.778388e-26)
(-3.663359e-05 -0.0004096514 -2.224543e-30)
(-1.178319e-05 -0.0005625746 -3.36171e-26)
(-0.0001677961 1.013754e-05 6.811241e-27)
(-0.0001864908 -2.26677e-06 3.682463e-27)
(-0.0001873182 -4.903807e-05 -1.052349e-26)
(-0.0001765729 -0.0001305086 -1.501711e-27)
(-0.0001605276 -0.0002414917 1.654284e-30)
(-0.0001428849 -0.0003763455 -4.417084e-30)
(-0.0001257311 -0.0005222367 1.012164e-28)
(-0.0002520289 1.475687e-05 -2.829912e-28)
(-0.0002758492 6.056039e-06 -6.935322e-27)
(-0.0002802131 -3.890172e-05 -3.932391e-27)
(-0.0002721942 -0.000116943 -1.241271e-26)
(-0.0002606972 -0.0002245043 -2.135663e-26)
(-0.0002488392 -0.0003554121 -5.15957e-30)
(-0.0002433023 -0.0005064427 3.929484e-26)
(-0.0003289823 1.839447e-05 -2.890199e-26)
(-0.0003551772 1.24174e-05 -3.225681e-26)
(-0.0003637928 -3.148767e-05 -5.816199e-26)
(-0.0003611573 -0.0001086777 -5.29219e-26)
(-0.0003566641 -0.000218717 -3.010468e-28)
(-0.0003518887 -0.0003530137 -5.74054e-27)
(-0.0003532871 -0.0005093224 1.991414e-26)
(-0.0003931908 2.058308e-05 -1.923007e-26)
(-0.000420472 1.776658e-05 -2.142385e-26)
(-0.0004286738 -2.500634e-05 -3.259158e-30)
(-0.0004321707 -0.0001042297 1.18691e-26)
(-0.0004326787 -0.0002157607 -1.595127e-26)
(-0.0004329243 -0.0003558914 -9.522076e-26)
(-0.0004343481 -0.000520896 -4.999514e-26)
(-0.0004424012 1.97445e-05 4.019681e-26)
(-0.0004698814 1.912982e-05 -9.842593e-28)
(-0.0004789198 -2.423782e-05 3.787816e-29)
(-0.0004831038 -0.0001029487 1.191085e-29)
(-0.0004851602 -0.0002150887 5.433818e-29)
(-0.0004846071 -0.0003596993 -3.8334e-26)
(-0.0004765395 -0.0005369233 -4.862386e-26)
(-0.0004766844 1.525997e-05 -2.583622e-28)
(-0.0005023421 1.440562e-05 -4.395492e-26)
(-0.0005113679 -2.533088e-05 -3.43445e-26)
(-0.0005150052 -0.0001012387 1.870294e-26)
(-0.0005151491 -0.0002117974 1.345451e-26)
(-0.000508992 -0.0003569903 -3.603387e-26)
(-0.0004891113 -0.0005439287 -4.689765e-26)
(-0.0004962779 8.607543e-06 -9.309282e-26)
(-0.0005169825 5.207358e-06 -4.388098e-26)
(-0.0005251034 -2.874603e-05 -4.116767e-26)
(-0.0005270062 -9.856726e-05 -1.643026e-26)
(-0.000524701 -0.0002076417 -8.811566e-26)
(-0.0005123065 -0.0003486707 -1.315558e-25)
(-0.0004834318 -0.0005262754 -1.737932e-25)
(-0.0005015271 1.822581e-06 -4.771838e-26)
(-0.0005152226 -6.817504e-06 -4.884929e-26)
(-0.0005213552 -3.518398e-05 -6.642157e-27)
(-0.0005222992 -9.621673e-05 7.359508e-26)
(-0.0005190313 -0.0001901735 -6.905736e-26)
(-0.0005010662 -0.0003256226 -3.15003e-26)
(-0.0004577159 -0.0004932598 -5.286691e-29)
(-0.0004940726 -3.911961e-06 0)
(-0.0005006701 -2.015788e-05 -4.658467e-26)
(-0.000503013 -4.613383e-05 2.12318e-29)
(-0.0005052482 -9.391118e-05 8.252974e-26)
(-0.0004999555 -0.0001771595 -1.950589e-26)
(-0.0004774806 -0.000293764 -3.190022e-26)
(-0.0004228895 -0.0004474218 1.813346e-25)
(-0.0004768907 -8.847581e-06 0)
(-0.0004780995 -3.071929e-05 -2.109789e-27)
(-0.0004758939 -5.929108e-05 -3.727243e-27)
(-0.0004761117 -9.952231e-05 4.162722e-26)
(-0.0004695311 -0.0001629317 1.680947e-26)
(-0.0004466903 -0.000257421 2.410246e-26)
(-0.0003899319 -0.0003727228 -4.087189e-26)
(-0.0004525728 -1.274927e-05 -4.339064e-26)
(-0.0004493502 -4.00312e-05 0)
(-0.0004436862 -7.100832e-05 0)
(-0.0004392739 -0.0001069759 3.911106e-26)
(-0.0004326737 -0.0001554655 -6.77685e-26)
(-0.000414129 -0.0002197518 1.834419e-29)
(-0.0003637745 -0.0003132947 -3.989266e-26)
(-0.0004221113 -1.541167e-05 -4.044288e-26)
(-0.0004165337 -4.609524e-05 -8.983665e-28)
(-0.0004089877 -7.865265e-05 -1.574983e-27)
(-0.0004006683 -0.0001143091 -1.733254e-26)
(-0.0003930203 -0.0001507957 -8.742476e-26)
(-0.0003783639 -0.0001992728 -2.800976e-26)
(-0.0003392226 -0.0002613662 3.889212e-26)
(-0.0003877704 -1.645291e-05 0)
(-0.000381305 -4.877005e-05 3.621223e-26)
(-0.0003727957 -8.23135e-05 0)
(-0.0003635504 -0.0001153894 -4.010153e-27)
(-0.0003527885 -0.000151575 -5.490488e-27)
(-0.0003393282 -0.0001898585 -2.604514e-26)
(-0.0003120483 -0.0002315734 3.867907e-26)
(-0.0003521784 -1.614126e-05 0)
(-0.00034517 -4.853511e-05 -3.247882e-26)
(-0.0003370438 -8.030337e-05 3.153557e-26)
(-0.0003265879 -0.0001139938 0)
(-0.0003143683 -0.0001484242 -9.394571e-27)
(-0.0003000919 -0.0001822458 -1.473217e-28)
(-0.0002772345 -0.0002175479 -1.261703e-28)
(-0.0003173653 -1.54934e-05 0)
(-0.0003106977 -4.568348e-05 -8.820158e-26)
(-0.0003019895 -7.663782e-05 -5.698569e-29)
(-0.0002911675 -0.0001083846 -5.975956e-26)
(-0.0002784817 -0.0001401427 -8.302665e-27)
(-0.000262559 -0.0001734741 2.225336e-26)
(-0.0002393548 -0.0002088581 -5.004373e-26)
(-0.0002847348 -1.447484e-05 2.715656e-26)
(-0.0002782145 -4.30723e-05 -2.700453e-26)
(-0.0002693796 -7.146556e-05 1.552051e-29)
(-0.0002585349 -0.0001001608 -4.625021e-26)
(-0.0002452547 -0.0001295291 0)
(-0.0002283222 -0.000159727 0)
(-0.0002053303 -0.0001911769 -2.015694e-26)
(-0.0002543142 -1.343186e-05 2.413388e-26)
(-0.0002482639 -3.999798e-05 -2.385032e-26)
(-0.00023959 -6.620299e-05 2.260429e-26)
(-0.0002286369 -9.191653e-05 2.138338e-26)
(-0.0002148086 -0.0001185282 0)
(-0.0001971923 -0.0001463299 0)
(-0.0001752574 -0.0001722348 -2.27403e-26)
(-0.0002262805 -1.232866e-05 -2.154949e-26)
(-0.0002207907 -3.670966e-05 -2.193961e-26)
(-0.0002126403 -6.034627e-05 -8.460719e-28)
(-0.0002015615 -8.38654e-05 1.773622e-26)
(-0.0001873693 -0.0001073974 8.615978e-27)
(-0.0001701255 -0.0001297527 -1.972813e-26)
(-0.0001479037 -0.0001530639 8.837951e-27)
(-0.0002007824 -1.118359e-05 -1.917495e-26)
(-0.0001959569 -3.321909e-05 -2.345606e-28)
(-0.0001882412 -5.473643e-05 7.656837e-28)
(-0.0001775241 -7.572701e-05 1.064878e-27)
(-0.0001636558 -9.635571e-05 0)
(-0.0001468322 -0.0001155709 -1.615159e-26)
(-0.0001257636 -0.0001343614 1.157678e-26)
(-0.0001777711 -1.012025e-05 0)
(-0.0001735648 -2.99061e-05 -4.128262e-28)
(-0.0001663781 -4.93209e-05 -6.865725e-28)
(-0.000155967 -6.833143e-05 3.581101e-26)
(-0.000143383 -8.53461e-05 8.969594e-27)
(-0.0001271923 -0.0001023783 2.087997e-26)
(-0.0001082568 -0.0001173577 6.822218e-27)
(-0.0001572086 -9.040696e-06 -6.086007e-29)
(-0.0001534889 -2.675979e-05 -1.851986e-28)
(-0.0001469414 -4.395851e-05 0)
(-0.0001375884 -6.043513e-05 -4.675468e-29)
(-0.0001254558 -7.600973e-05 1.17811e-26)
(-0.0001111138 -9.01469e-05 1.044788e-26)
(-9.431699e-05 -0.0001023373 -2.845946e-27)
(-0.0001388958 -8.064971e-06 1.315017e-26)
(-0.0001356226 -2.387682e-05 -1.3192e-26)
(-0.0001295835 -3.936188e-05 2.165837e-26)
(-0.0001214667 -5.345674e-05 -2.594395e-26)
(-0.0001104159 -6.71121e-05 9.448783e-27)
(-9.771259e-05 -7.909032e-05 0)
(-8.300237e-05 -8.920168e-05 2.468458e-27)
(-0.0001226439 -7.17194e-06 1.167087e-26)
(-0.0001196768 -2.127758e-05 -1.112184e-26)
(-0.0001146144 -3.457339e-05 1.059736e-26)
(-0.0001070337 -4.741803e-05 0)
(-9.751539e-05 -5.908977e-05 -9.19616e-27)
(-8.637349e-05 -6.93289e-05 0)
(-7.364438e-05 -7.786792e-05 7.063434e-27)
(-0.0001083145 -6.319496e-06 0)
(-0.0001058805 -1.866951e-05 0)
(-0.0001012546 -3.064681e-05 -1.895993e-26)
(-9.466087e-05 -4.1807e-05 0)
(-8.638949e-05 -5.192122e-05 -1.62885e-26)
(-7.666738e-05 -6.079625e-05 -7.288931e-27)
(-6.564121e-05 -6.82335e-05 6.297907e-27)
(-9.568259e-05 -5.630633e-06 -9.050042e-27)
(-9.371475e-05 -1.641444e-05 0)
(-8.964522e-05 -2.697827e-05 -8.205112e-27)
(-8.39187e-05 -3.674836e-05 8.125317e-27)
(-7.672279e-05 -4.5584e-05 -7.230071e-27)
(-6.828652e-05 -5.329389e-05 -1.298555e-26)
(-5.874184e-05 -5.966453e-05 -5.64261e-27)
(-8.469365e-05 -4.940312e-06 -7.989616e-27)
(-8.29338e-05 -1.449078e-05 -7.732231e-27)
(-7.947872e-05 -2.372671e-05 0)
(-7.452406e-05 -3.229217e-05 7.420343e-27)
(-6.829478e-05 -4.003907e-05 5.409391e-28)
(-6.102782e-05 -4.677892e-05 -1.224665e-26)
(-5.286371e-05 -5.230365e-05 -2.146499e-27)
(-7.503375e-05 -4.356632e-06 -7.091866e-27)
(-7.353219e-05 -1.273274e-05 -6.893429e-27)
(-7.057113e-05 -2.084728e-05 6.606689e-27)
(-6.628261e-05 -2.838866e-05 0)
(-6.089225e-05 -3.523412e-05 0)
(-5.460611e-05 -4.127749e-05 -5.191648e-27)
(-4.746964e-05 -4.652012e-05 9.385564e-27)
(-6.656252e-05 -3.835458e-06 -6.288583e-27)
(-6.529021e-05 -1.118364e-05 -6.123878e-27)
(-6.274667e-05 -1.831939e-05 5.869925e-27)
(-5.903225e-05 -2.496295e-05 0)
(-5.435307e-05 -3.10066e-05 4.170272e-28)
(-4.88788e-05 -3.633834e-05 6.421892e-31)
(-4.263291e-05 -4.089244e-05 -5.595495e-28)
(-5.913397e-05 -3.377897e-06 0)
(-5.806211e-05 -9.821122e-06 -5.443523e-27)
(-5.587013e-05 -1.610218e-05 5.231092e-27)
(-5.264866e-05 -2.195869e-05 0)
(-4.858032e-05 -2.730063e-05 -4.95657e-27)
(-4.381573e-05 -3.203715e-05 -8.687136e-28)
(-3.839034e-05 -3.611145e-05 -4.946752e-28)
(-5.262e-05 -2.976965e-06 4.972107e-27)
(-5.171678e-05 -8.627817e-06 -2.892763e-29)
(-4.982354e-05 -1.415999e-05 4.615924e-27)
(-4.70252e-05 -1.93244e-05 -1.294077e-28)
(-4.348116e-05 -2.404462e-05 -1.581441e-28)
(-3.930809e-05 -2.825338e-05 -3.737462e-27)
(-3.458443e-05 -3.188246e-05 0)
(-4.690516e-05 -2.626251e-06 8.863923e-27)
(-4.614247e-05 -7.583761e-06 0)
(-4.450294e-05 -1.246064e-05 0)
(-4.206513e-05 -1.702261e-05 4.067593e-27)
(-3.895904e-05 -2.122104e-05 7.506422e-27)
(-3.52231e-05 -2.504179e-05 -3.347764e-27)
(-3.116551e-05 -2.81354e-05 0)
(-4.188806e-05 -2.319576e-06 3.95812e-27)
(-4.124215e-05 -6.669973e-06 -2.246362e-29)
(-3.981816e-05 -1.097075e-05 -3.68435e-29)
(-3.768746e-05 -1.499601e-05 -1.032038e-28)
(-3.495924e-05 -1.869603e-05 3.177239e-27)
(-3.168347e-05 -2.203405e-05 0)
(-2.80286e-05 -2.493509e-05 -2.694337e-27)
(-3.748017e-05 -2.051312e-06 -3.365542e-30)
(-3.69318e-05 -5.870213e-06 -3.497543e-27)
(-3.569185e-05 -9.665901e-06 -3.380188e-27)
(-3.382608e-05 -1.322191e-05 -6.365349e-27)
(-3.143066e-05 -1.650107e-05 0)
(-2.856233e-05 -1.94758e-05 -2.677228e-27)
(-2.531283e-05 -2.207406e-05 3.297496e-30)
(-3.360454e-05 -1.816426e-06 -3.174592e-27)
(-3.313767e-05 -5.169694e-06 -6.233638e-27)
(-3.205485e-05 -8.521928e-06 -6.04424e-27)
(-3.041611e-05 -1.166424e-05 -2.941791e-27)
(-2.829714e-05 -1.457416e-05 -9.899626e-29)
(-2.577447e-05 -1.721589e-05 -2.416981e-27)
(-2.28993e-05 -1.953835e-05 2.3407e-27)
(-3.019468e-05 -1.610469e-06 -2.855722e-27)
(-2.979558e-05 -4.555154e-06 -5.600222e-27)
(-2.88458e-05 -7.519749e-06 -2.70799e-27)
(-2.739606e-05 -1.030876e-05 0)
(-2.547865e-05 -1.293083e-05 -6.661362e-28)
(-2.329143e-05 -1.520885e-05 -1.013011e-27)
(-2.074537e-05 -1.729831e-05 -2.414853e-28)
(-2.719348e-05 -1.428969e-06 -2.575739e-27)
(-2.685059e-05 -4.01322e-06 -2.51784e-27)
(-2.601288e-05 -6.632998e-06 6.680548e-29)
(-2.472567e-05 -9.093411e-06 6.131442e-29)
(-2.30307e-05 -1.139651e-05 0)
(-2.102818e-05 -1.348864e-05 -2.010003e-27)
(-1.881658e-05 -1.53247e-05 1.07498e-28)
(-2.455215e-05 -1.268777e-06 -2.32644e-27)
(-2.425591e-05 -3.534829e-06 -2.27702e-27)
(-2.351374e-05 -5.851066e-06 3.920278e-29)
(-2.236892e-05 -8.028281e-06 2.699919e-29)
(-2.086504e-05 -1.007497e-05 0)
(-1.906267e-05 -1.193971e-05 -1.740378e-27)
(-1.709795e-05 -1.357379e-05 1.907827e-28)
(-2.222867e-05 -1.126778e-06 1.816505e-30)
(-2.197048e-05 -3.111044e-06 -4.133594e-27)
(-2.1308e-05 -5.158611e-06 1.717045e-29)
(-2.02823e-05 -7.085643e-06 2.371033e-29)
(-1.893624e-05 -8.903624e-06 0)
(-1.731877e-05 -1.056446e-05 0)
(-1.555963e-05 -1.202559e-05 0)
(-2.018698e-05 -1.000442e-06 0)
(-1.995886e-05 -2.734115e-06 -1.881782e-27)
(-1.936147e-05 -4.543194e-06 0)
(-1.843122e-05 -6.25048e-06 1.702839e-27)
(-1.722024e-05 -7.864128e-06 -5.270709e-29)
(-1.576332e-05 -9.347247e-06 -6.397137e-29)
(-1.418012e-05 -1.06583e-05 1.301721e-27)
(-1.839639e-05 -8.874124e-07 -1.745987e-27)
(-1.819014e-05 -2.397995e-06 0)
(-1.764225e-05 -3.999112e-06 2.590027e-29)
(-1.677564e-05 -5.528721e-06 1.353859e-27)
(-1.569333e-05 -6.93646e-06 -1.847992e-27)
(-1.437122e-05 -8.271382e-06 0)
(-1.293854e-05 -9.454153e-06 1.257524e-27)
(-1.683122e-05 -7.852148e-07 -1.599154e-27)
(-1.663787e-05 -2.09429e-06 0)
(-1.612535e-05 -3.504643e-06 1.114255e-29)
(-1.532618e-05 -4.853772e-06 1.554279e-29)
(-1.430081e-05 -6.138782e-06 -2.735398e-27)
(-1.311557e-05 -7.327449e-06 1.266661e-27)
(-1.181429e-05 -8.399077e-06 -1.1527e-27)
(-1.547031e-05 -6.921405e-07 0)
(-1.528034e-05 -1.819486e-06 -1.443114e-27)
(-1.478935e-05 -3.062888e-06 9.417953e-30)
(-1.403699e-05 -4.263474e-06 1.333947e-27)
(-1.307174e-05 -5.419536e-06 -1.255681e-27)
(-1.197991e-05 -6.49691e-06 1.161738e-27)
(-1.078788e-05 -7.480026e-06 6.898985e-31)
(-1.429645e-05 -6.062033e-07 0)
(-1.409725e-05 -1.56787e-06 -1.340813e-27)
(-1.360919e-05 -2.663593e-06 1.298131e-27)
(-1.287945e-05 -3.736669e-06 1.241856e-27)
(-1.195972e-05 -4.785716e-06 -1.142432e-27)
(-1.093824e-05 -5.776234e-06 3.589441e-29)
(-9.839065e-06 -6.69011e-06 9.702955e-28)
(-1.329684e-05 -5.251541e-07 0)
(-1.307148e-05 -1.334241e-06 0)
(-1.256355e-05 -2.300765e-06 1.206053e-27)
(-1.183235e-05 -3.268786e-06 -1.14119e-27)
(-1.093815e-05 -4.23505e-06 3.541458e-31)