/*--------------------------------*- C++ -*----------------------------------*\
| =========                 |                                                 |
| \\      /  F ield         | OpenFOAM: The Open Source CFD Toolbox           |
|  \\    /   O peration     | Version:  2206                                  |
|   \\  /    A nd           | Website:  www.openfoam.com                      |
|    \\/     M anipulation  |                                                 |
\*---------------------------------------------------------------------------*/
FoamFile
{
    version     2.0;
    format      ascii;
    arch        "LSB;label=32;scalar=64";
    class       volVectorField;
    location    "1.8";
    object      U.a;
}
// * * * * * * * * * * * * * * * * * * * * * * * * * * * * * * * * * * * * * //

dimensions      [0 1 -1 0 0 0 0];

internalField   nonuniform List<vector> 
13078
(
(5.3696e-06 -9.016318e-05 1.483881e-27)
(5.620466e-07 -4.57448e-05 9.610765e-33)
(-7.077808e-08 -2.728128e-05 -4.086518e-29)
(-1.516998e-07 -1.788148e-05 0)
(-1.840955e-07 -1.338767e-05 -1.156949e-29)
(-2.033413e-07 -1.03508e-05 -1.161666e-29)
(-2.126289e-07 -8.054963e-06 -1.16482e-29)
(-3.466418e-05 -3.880669e-05 0)
(-1.780004e-05 -3.165878e-05 -1.6606e-32)
(-6.517301e-06 -2.178355e-05 0)
(-2.934897e-06 -1.616778e-05 0)
(-1.677697e-06 -1.26438e-05 6.837673e-34)
(-1.096282e-06 -9.977072e-06 4.518634e-34)
(-7.941175e-07 -7.840449e-06 1.1312e-33)
(-1.18709e-05 -1.011186e-05 2.10751e-31)
(-1.030942e-05 -1.53558e-05 4.350355e-31)
(-6.403921e-06 -1.484798e-05 1.253347e-29)
(-3.875015e-06 -1.296557e-05 2.317774e-29)
(-2.481368e-06 -1.087028e-05 1.159526e-29)
(-1.699661e-06 -8.930595e-06 0)
(-1.241415e-06 -7.181206e-06 -6.632369e-35)
(-3.46895e-06 -3.777149e-06 -2.408591e-31)
(-5.290724e-06 -8.131322e-06 9.444932e-31)
(-4.687008e-06 -9.813519e-06 2.364888e-30)
(-3.559694e-06 -9.719718e-06 1.489453e-30)
(-2.612321e-06 -8.785838e-06 1.336314e-33)
(-1.947221e-06 -7.556636e-06 0)
(-1.495984e-06 -6.24607e-06 -3.448288e-34)
(-1.351923e-06 -2.068417e-06 -2.952644e-31)
(-2.852137e-06 -4.820178e-06 -5.791402e-31)
(-3.150834e-06 -6.496708e-06 8.80413e-31)
(-2.843234e-06 -7.049224e-06 1.843796e-33)
(-2.376243e-06 -6.831185e-06 -1.399331e-29)
(-1.934574e-06 -6.13927e-06 -2.508229e-35)
(-1.580784e-06 -5.204775e-06 1.167594e-29)
(-6.092072e-07 -1.341795e-06 0)
(-1.606515e-06 -3.084498e-06 7.413683e-31)
(-2.086677e-06 -4.41329e-06 -7.479926e-31)
(-2.152834e-06 -5.078188e-06 7.275964e-31)
(-2.005833e-06 -5.168016e-06 1.500542e-30)
(-1.782725e-06 -4.831268e-06 -1.178796e-29)
(-1.551834e-06 -4.179711e-06 -2.341721e-29)
(-3.159514e-07 -9.781396e-07 0)
(-9.596132e-07 -2.107332e-06 5.935676e-31)
(-1.401043e-06 -3.084085e-06 -1.13142e-29)
(-1.607874e-06 -3.669019e-06 -1.201136e-29)
(-1.643944e-06 -3.851312e-06 2.21843e-30)
(-1.578076e-06 -3.682198e-06 1.48713e-30)
(-1.464073e-06 -3.231339e-06 0)
(-1.827877e-07 -7.690981e-07 -9.606901e-31)
(-6.101938e-07 -1.512213e-06 5.806503e-31)
(-9.742819e-07 -2.208752e-06 6.228825e-31)
(-1.220752e-06 -2.665911e-06 0)
(-1.347406e-06 -2.836203e-06 1.490178e-30)
(-1.381629e-06 -2.725434e-06 1.491276e-30)
(-1.356161e-06 -2.372739e-06 1.489768e-30)
(-1.138915e-07 -6.357843e-07 3.235969e-32)
(-4.114109e-07 -1.122111e-06 -1.193121e-30)
(-7.072847e-07 -1.611027e-06 8.70694e-31)
(-9.532275e-07 -1.936078e-06 1.50897e-30)
(-1.123741e-06 -2.050984e-06 4.37528e-30)
(-1.219951e-06 -1.942994e-06 1.493086e-30)
(-1.257355e-06 -1.627691e-06 0)
(-7.467375e-08 -5.437022e-07 9.220223e-31)
(-2.933804e-07 -8.492008e-07 -1.133847e-30)
(-5.396378e-07 -1.180607e-06 -5.84384e-31)
(-7.745077e-07 -1.388317e-06 1.851256e-30)
(-9.658449e-07 -1.434339e-06 -3.882935e-32)
(-1.100547e-06 -1.300391e-06 0)
(-1.182321e-06 -9.891114e-07 0)
(-5.063261e-08 -4.75912e-07 0)
(-2.210477e-07 -6.471052e-07 0)
(-4.344493e-07 -8.557438e-07 -1.170608e-30)
(-6.592173e-07 -9.630085e-07 1.770673e-30)
(-8.620797e-07 -9.390571e-07 4.029591e-32)
(-1.022407e-06 -7.655683e-07 0)
(-1.136388e-06 -4.385023e-07 0)
(-3.510608e-08 -4.233357e-07 0)
(-1.757756e-07 -4.89653e-07 1.096046e-30)
(-3.695141e-07 -5.992622e-07 -1.079698e-30)
(-5.892067e-07 -6.206401e-07 -3.298003e-30)
(-8.013876e-07 -5.302177e-07 -2.098869e-31)
(-9.812455e-07 -3.115957e-07 0)
(-1.120307e-06 4.247157e-08 1.643901e-30)
(-2.463111e-08 -3.80316e-07 0)
(-1.472935e-07 -3.609168e-07 -4.938148e-31)
(-3.313982e-07 -3.879867e-07 -1.491695e-30)
(-5.519602e-07 -3.34712e-07 -1.680556e-30)
(-7.748002e-07 -1.823602e-07 1.280459e-30)
(-9.721456e-07 8.304784e-08 -1.27104e-30)
(-1.132807e-06 4.70291e-07 3.901584e-32)
(-1.719461e-08 -3.435368e-07 7.891694e-31)
(-1.297376e-07 -2.509855e-07 0)
(-3.116798e-07 -2.06625e-07 -1.492278e-30)
(-5.387669e-07 -8.698051e-08 -1.518227e-30)
(-7.752786e-07 1.230228e-07 2.422282e-30)
(-9.905013e-07 4.352647e-07 -1.168584e-30)
(-1.171793e-06 8.590516e-07 1.214813e-30)
(-1.163211e-08 -3.107378e-07 6.738292e-31)
(-1.194017e-07 -1.532012e-07 0)
(-3.044427e-07 -4.484352e-08 -2.981759e-30)
(-5.392532e-07 1.35143e-07 2.020951e-29)
(-7.918453e-07 3.992077e-07 2.551784e-29)
(-1.031456e-06 7.583777e-07 0)
(-1.235085e-06 1.220655e-06 -1.194224e-30)
(-7.190318e-09 -2.80379e-07 0)
(-1.143322e-07 -6.291441e-08 7.585378e-31)
(-3.085607e-07 1.047663e-07 0)
(-5.605424e-07 3.404335e-07 2.183846e-30)
(-8.343541e-07 6.556452e-07 3.064866e-30)
(-1.095726e-06 1.062629e-06 3.029562e-30)
(-1.32169e-06 1.56495e-06 1.940886e-30)
(-3.285436e-09 -2.512835e-07 0)
(-1.125094e-07 2.333848e-08 1.20384e-30)
(-3.19261e-07 2.477243e-07 -1.488756e-30)
(-5.91339e-07 5.375077e-07 -1.501392e-30)
(-8.907009e-07 9.035994e-07 0)
(-1.178669e-06 1.357175e-06 0)
(-1.429648e-06 1.90055e-06 0)
(3.806366e-10 -2.226465e-07 9.838345e-31)
(-1.131192e-07 1.081153e-07 -3.2137e-31)
(-3.359077e-07 3.882713e-07 -2.979398e-30)
(-6.324836e-07 7.314722e-07 -1.503184e-30)
(-9.613573e-07 1.148418e-06 0)
(-1.279379e-06 1.648982e-06 -2.131248e-30)
(-1.557942e-06 2.234701e-06 -6.07091e-30)
(4.005777e-09 -1.937e-07 7.888745e-31)
(-1.156422e-07 1.936354e-07 -4.407008e-31)
(-3.578456e-07 5.300629e-07 -4.4724e-30)
(-6.830731e-07 9.272662e-07 -3.010549e-30)
(-1.045461e-06 1.395527e-06 0)
(-1.397166e-06 1.943902e-06 7.344866e-31)
(-1.705988e-06 2.573723e-06 -3.045171e-30)
(7.669301e-09 -1.637792e-07 8.205649e-32)
(-1.199311e-07 2.819372e-07 1.273309e-31)
(-3.849299e-07 6.764235e-07 1.171582e-31)
(-7.423352e-07 1.129274e-06 0)
(-1.136339e-06 1.647967e-06 2.459475e-29)
(-1.524068e-06 2.244289e-06 3.102821e-29)
(-1.872523e-06 2.92323e-06 6.130837e-30)
(1.136089e-08 -1.32106e-07 -7.544e-31)
(-1.263628e-07 3.75195e-07 3.882197e-31)
(-4.183644e-07 8.307711e-07 1.21026e-30)
(-8.144899e-07 1.341981e-06 2.96749e-30)
(-1.250968e-06 1.911928e-06 3.049322e-30)
(-1.680093e-06 2.558747e-06 1.4152e-30)
(-2.063549e-06 3.289562e-06 -3.729229e-30)
(1.486485e-08 -9.797722e-08 0)
(-1.356293e-07 4.756802e-07 9.94996e-31)
(-4.589177e-07 9.969277e-07 1.056719e-30)
(-8.982432e-07 1.570629e-06 -6.270299e-31)
(-1.381e-06 2.198714e-06 0)
(-1.855865e-06 2.899862e-06 1.161226e-30)
(-2.278547e-06 3.681062e-06 6.32214e-32)
(1.773839e-08 -6.042568e-08 6.061408e-31)
(-1.49146e-07 5.861426e-07 0)
(-5.092948e-07 1.179354e-06 0)
(-9.981064e-07 1.821454e-06 2.951571e-30)
(-1.533343e-06 2.513046e-06 3.400409e-30)
(-2.058074e-06 3.272724e-06 0)
(-2.523105e-06 4.107583e-06 2.428094e-31)
(1.928252e-08 -1.823882e-08 1.886094e-30)
(-1.6937e-07 7.1013e-07 0)
(-5.736542e-07 1.383901e-06 0)
(-1.119923e-06 2.102542e-06 -2.072178e-30)
(-1.714229e-06 2.86528e-06 -1.666356e-30)
(-2.285706e-06 3.685386e-06 -3.022681e-31)
(-2.796579e-06 4.578443e-06 0)
(1.830245e-08 3.006085e-08 1.331049e-30)
(-1.99983e-07 8.521683e-07 1.487978e-30)
(-6.58289e-07 1.61819e-06 2.92992e-30)
(-1.272842e-06 2.424626e-06 3.037424e-30)
(-1.938266e-06 3.269172e-06 3.136263e-30)
(-2.573403e-06 4.158376e-06 -6.697702e-31)
(-3.137769e-06 5.120827e-06 0)
(1.318977e-08 8.642739e-08 0)
(-2.459475e-07 1.017942e-06 -2.030957e-30)
(-7.711922e-07 1.891749e-06 1.972523e-30)
(-1.46682e-06 2.801209e-06 0)
(-2.214323e-06 3.742594e-06 4.669289e-30)
(-2.922648e-06 4.722058e-06 1.254367e-29)
(-3.549689e-06 5.769965e-06 6.515893e-30)
(1.51485e-09 1.532041e-07 -2.149213e-30)
(-3.14351e-07 1.214482e-06 -2.690339e-30)
(-9.235518e-07 2.216377e-06 2.425841e-30)
(-1.716621e-06 3.248963e-06 0)
(-2.560898e-06 4.307392e-06 -6.200423e-30)
(-3.356174e-06 5.398084e-06 -5.922949e-34)
(-4.058522e-06 6.552387e-06 6.57769e-30)
(-1.997838e-08 2.33273e-07 -2.769916e-30)
(-4.144299e-07 1.45014e-06 -3.239901e-30)
(-1.129901e-06 2.606215e-06 3.136063e-30)
(-2.040402e-06 3.787772e-06 0)
(-2.998388e-06 4.989142e-06 0)
(-3.894979e-06 6.217438e-06 -1.929793e-30)
(-4.678368e-06 7.497479e-06 -5.126618e-29)
(-5.600535e-08 3.298199e-07 -4.520182e-30)
(-5.587307e-07 1.734643e-06 -5.604051e-30)
(-1.408227e-06 3.077626e-06 0)
(-2.459059e-06 4.44056e-06 -2.80684e-30)
(-3.548106e-06 5.816141e-06 -6.293726e-30)
(-4.561836e-06 7.211397e-06 1.436261e-30)
(-5.454647e-06 8.646389e-06 1.959214e-29)
(-1.099633e-07 4.458367e-07 -4.149403e-30)
(-7.581571e-07 2.076125e-06 0)
(-1.778832e-06 3.649253e-06 -7.611253e-30)
(-2.995186e-06 5.234367e-06 1.128158e-30)
(-4.228061e-06 6.821846e-06 -3.622987e-30)
(-5.359179e-06 8.415497e-06 -6.104766e-30)
(-6.347973e-06 1.00324e-05 -2.287217e-30)
(-1.9101e-07 5.809963e-07 0)
(-1.037495e-06 2.487291e-06 0)
(-2.268275e-06 4.342169e-06 -1.1076e-29)
(-3.674236e-06 6.201473e-06 0)
(-5.05832e-06 8.050264e-06 -8.919597e-30)
(-6.300566e-06 9.885507e-06 -3.785399e-30)
(-7.370111e-06 1.171412e-05 2.869209e-30)
(-3.059271e-07 7.461756e-07 -8.44616e-30)
(-1.408456e-06 2.977366e-06 4.434804e-30)
(-2.891342e-06 5.172058e-06 5.158875e-30)
(-4.516475e-06 7.37806e-06 0)
(-6.049733e-06 9.553972e-06 -5.434812e-30)
(-7.384892e-06 1.169274e-05 0)
(-8.520966e-06 1.378881e-05 -9.838194e-30)
(-4.66349e-07 9.421767e-07 -7.301281e-30)
(-1.901615e-06 3.555828e-06 8.84106e-30)
(-3.679137e-06 6.158161e-06 2.29624e-29)
(-5.525817e-06 8.791971e-06 1.866282e-29)
(-7.187921e-06 1.13862e-05 3.225916e-31)
(-8.56626e-06 1.391096e-05 6.735805e-30)
(-9.727015e-06 1.636063e-05 -6.854954e-30)
(-6.841581e-07 1.172396e-06 1.143584e-30)
(-2.550388e-06 4.253528e-06 1.505673e-30)
(-4.672456e-06 7.333614e-06 1.607792e-29)
(-6.727072e-06 1.048761e-05 8.444949e-30)
(-8.428174e-06 1.359623e-05 -2.123887e-29)
(-9.729087e-06 1.659784e-05 1.373553e-29)
(-1.080909e-05 1.949906e-05 2.803507e-29)
(-9.730601e-07 1.439904e-06 -1.142747e-30)
(-3.379937e-06 5.075073e-06 -1.511602e-30)
(-5.891443e-06 8.749162e-06 5.113962e-30)
(-8.074603e-06 1.250593e-05 -4.933335e-29)
(-9.649192e-06 1.622113e-05 -6.946469e-29)
(-1.06606e-05 1.978732e-05 -6.556924e-30)
(-1.144791e-05 2.319988e-05 0)
(-1.34934e-06 1.750871e-06 0)
(-4.419949e-06 6.045398e-06 0)
(-7.342567e-06 1.044381e-05 1.331857e-29)
(-9.550775e-06 1.491662e-05 2.559487e-29)
(-1.074361e-05 1.932121e-05 8.166739e-29)
(-1.1099e-05 2.350499e-05 6.836365e-29)
(-1.12562e-05 2.737755e-05 0)
(-1.829541e-06 2.121983e-06 -2.282755e-30)
(-5.686671e-06 7.227287e-06 3.047604e-30)
(-9.006475e-06 1.253587e-05 6.405358e-30)
(-1.108751e-05 1.790382e-05 0)
(-1.163992e-05 2.304893e-05 2.648391e-29)
(-1.095883e-05 2.781313e-05 -1.755974e-29)
(-9.932623e-06 3.30683e-05 -5.14349e-29)
(-2.427697e-06 2.594689e-06 -1.270624e-29)
(-7.186869e-06 8.749532e-06 3.073183e-30)
(-1.088718e-05 1.521331e-05 -1.742857e-29)
(-1.268278e-05 2.161201e-05 0)
(-1.237685e-05 2.775117e-05 3.565801e-29)
(-1.017835e-05 3.424658e-05 -1.637253e-28)
(-6.432573e-06 4.398161e-05 -5.169761e-28)
(-3.151236e-06 3.237126e-06 -1.494483e-29)
(-8.949959e-06 1.079096e-05 -1.792474e-29)
(-1.308206e-05 1.865304e-05 -2.131527e-29)
(-1.471676e-05 2.666139e-05 -1.775594e-29)
(-1.337749e-05 3.550613e-05 -5.367705e-29)
(-8.571373e-06 4.721352e-05 -9.778859e-29)
(-2.314917e-07 6.488133e-05 -3.897984e-28)
(-3.961122e-06 4.08112e-06 0)
(-1.106082e-05 1.35329e-05 1.843306e-29)
(-1.625176e-05 2.38546e-05 3.073461e-29)
(-1.823088e-05 3.552426e-05 1.335937e-29)
(-1.560077e-05 4.983381e-05 -1.01213e-28)
(-7.140325e-06 6.887912e-05 -7.748201e-29)
(6.782163e-06 9.642963e-05 0)
(-4.9448e-06 5.274003e-06 2.656042e-29)
(-1.441397e-05 1.840274e-05 4.186773e-29)
(-2.174619e-05 3.32747e-05 -1.654843e-30)
(-2.45282e-05 5.046467e-05 1.281817e-28)
(-2.044396e-05 7.116086e-05 -1.52483e-28)
(-7.949731e-06 9.811931e-05 1.493121e-29)
(1.110229e-05 0.0001355394 -3.841269e-28)
(-7.08673e-06 8.242495e-06 3.770153e-29)
(-1.973698e-05 2.723431e-05 -6.140056e-30)
(-2.938369e-05 4.746433e-05 0)
(-3.273212e-05 6.961655e-05 1.522645e-29)
(-2.689612e-05 9.597928e-05 2.333284e-28)
(-9.986564e-06 0.0001300483 2.081598e-28)
(1.453635e-05 0.0001749571 2.308753e-28)
(-9.747198e-06 1.323808e-05 -6.234843e-29)
(-2.500873e-05 3.928836e-05 1.473862e-29)
(-3.576019e-05 6.356921e-05 1.769183e-29)
(-3.866605e-05 8.893675e-05 -3.944064e-28)
(-3.048012e-05 0.0001199282 1.112022e-28)
(-8.814723e-06 0.0001607131 4.688834e-28)
(2.027867e-05 0.0002104416 3.497347e-28)
(-1.091612e-05 1.927441e-05 -8.359664e-29)
(-2.63499e-05 5.162571e-05 0)
(-3.63879e-05 7.86029e-05 3.699648e-29)
(-3.749423e-05 0.0001068573 5.392016e-29)
(-2.573932e-05 0.0001426044 5.085733e-28)
(4.5727e-07 0.0001884997 1.171303e-27)
(3.23466e-05 0.0002406947 -6.339855e-29)
(-8.85643e-06 2.457335e-05 0)
(-2.131002e-05 6.233745e-05 3.715217e-29)
(-2.847613e-05 9.242996e-05 4.229008e-29)
(-2.579802e-05 0.0001250099 5.71729e-29)
(-8.892262e-06 0.0001659079 -3.734285e-29)
(2.178037e-05 0.0002144119 1.609781e-28)
(5.458226e-05 0.0002660685 5.481663e-29)
(-4.38143e-06 2.876533e-05 0)
(-1.046826e-05 7.251455e-05 4.239592e-29)
(-1.119094e-05 0.0001073982 -9.068316e-29)
(-1.849198e-06 0.0001454644 -3.046071e-28)
(2.175472e-05 0.0001912151 3.047589e-28)
(5.709524e-05 0.0002403834 -5.884534e-29)
(9.077982e-05 0.0002896507 -2.908578e-28)
(7.86299e-07 3.347188e-05 -1.192672e-28)
(4.058253e-06 8.542422e-05 9.103312e-30)
(1.298175e-05 0.0001271658 -2.288156e-29)
(3.230396e-05 0.0001710472 -3.550213e-28)
(6.449112e-05 0.0002194044 9.551999e-28)
(0.0001051986 0.0002683775 8.199554e-28)
(0.000140921 0.0003149875 1.231487e-28)
(6.306542e-06 4.038998e-05 -1.359305e-28)
(2.084421e-05 0.0001042586 -1.520986e-28)
(4.057699e-05 0.0001546934 -1.881557e-28)
(7.117354e-05 0.0002042201 -2.412852e-28)
(0.0001146132 0.0002546658 3.047468e-28)
(0.0001628836 0.0003020596 3.325592e-28)
(0.0002019853 0.000345456 -1.421416e-27)
(1.264144e-05 5.060169e-05 1.458975e-28)
(3.894803e-05 0.0001305752 -6.475568e-29)
(6.971167e-05 0.0001914397 -4.960682e-28)
(0.0001108836 0.0002478751 -3.873987e-28)
(0.0001640174 0.0003004928 -8.671446e-29)
(0.0002187935 0.0003452941 5.93199e-28)
(0.0002623949 0.0003831769 1.007937e-27)
(1.988016e-05 6.39996e-05 1.620158e-28)
(5.685063e-05 0.0001644403 -3.068048e-29)
(9.756809e-05 0.0002381511 -2.729179e-28)
(0.0001472809 0.0003022688 3.852734e-28)
(0.0002049387 0.0003553307 1.948702e-29)
(0.0002610801 0.0003950327 -7.164112e-28)
(0.0003072004 0.0004266005 -1.038172e-27)
(2.752537e-05 7.935834e-05 9.046842e-29)
(7.312509e-05 0.0002037429 -1.131677e-28)
(0.000120274 0.0002930121 -2.758815e-28)
(0.0001724635 0.0003634862 -3.38279e-28)
(0.0002272666 0.0004135129 -9.692727e-28)
(0.0002789763 0.0004458984 -6.542402e-28)
(0.0003248655 0.0004702361 1.090952e-28)
(3.299885e-05 9.440029e-05 1.068381e-28)
(8.313071e-05 0.0002443604 -2.162848e-28)
(0.0001320271 0.0003499641 -1.126182e-28)
(0.0001790063 0.0004241985 -1.359987e-28)
(0.0002246587 0.0004697166 2.236482e-28)
(0.0002681064 0.0004943386 -2.656712e-27)
(0.0003110702 0.0005084507 -4.11637e-27)
(3.437253e-05 0.0001085041 8.927564e-29)
(8.265765e-05 0.0002828147 -2.285407e-28)
(0.0001248496 0.0004008854 2.202588e-29)
(0.0001612285 0.0004774158 1.729072e-28)
(0.0001945654 0.0005191378 5.289892e-28)
(0.0002278143 0.000536141 7.158975e-28)
(0.0002663139 0.0005358893 1.041078e-28)
(3.068819e-05 0.0001193504 8.872253e-29)
(7.077989e-05 0.0003133795 -3.8961e-29)
(0.00010258 0.0004420815 -1.132237e-28)
(0.0001275491 0.0005197112 1.642368e-28)
(0.000149114 0.0005584302 1.556268e-28)
(0.0001708587 0.000568886 -1.033455e-31)
(0.0001959454 0.0005547137 -1.445556e-28)
(2.250175e-05 0.0001257043 -1.800459e-29)
(4.905771e-05 0.0003333017 2.515083e-29)
(6.805267e-05 0.0004702274 -6.017299e-30)
(8.135316e-05 0.0005492923 -1.536563e-29)
(9.201143e-05 0.0005871624 7.149215e-31)
(0.0001021589 0.0005961032 -4.022932e-28)
(0.0001130657 0.0005787588 -6.087987e-28)
(1.01565e-05 0.0001275965 1.663824e-29)
(1.953876e-05 0.0003414166 -3.646811e-29)
(2.420253e-05 0.0004835413 4.892882e-29)
(2.587435e-05 0.0005648455 1.313428e-28)
(2.593386e-05 0.0006045428 -1.455146e-29)
(2.463701e-05 0.0006170408 -4.783439e-30)
(2.155007e-05 0.0006087009 -1.383703e-27)
(-4.115744e-06 0.0001266403 1.652074e-29)
(-1.277152e-05 0.0003394752 -4.527039e-29)
(-2.261675e-05 0.0004822506 -4.489721e-29)
(-3.230622e-05 0.0005656316 2.722884e-28)
(-4.244006e-05 0.000608595 2.574208e-28)
(-5.421648e-05 0.0006268344 -3.618393e-29)
(-6.891609e-05 0.0006303883 -7.281608e-28)
(-1.568963e-05 0.0001232942 -2.31037e-30)
(-4.015414e-05 0.0003282054 2.805717e-29)
(-6.289538e-05 0.0004666055 1.195056e-28)
(-8.285014e-05 0.0005510011 1.243056e-28)
(-0.0001016932 0.0005974033 2.390544e-28)
(-0.0001215942 0.0006207938 1.901956e-30)
(-0.0001442395 0.0006331606 -5.266536e-28)
(-2.320472e-05 0.0001167078 5.334768e-29)
(-5.935358e-05 0.000307243 2.349498e-30)
(-9.21642e-05 0.00043732 -9.949437e-29)
(-0.0001208664 0.0005214847 -1.23769e-29)
(-0.0001472337 0.0005710953 -1.428763e-29)
(-0.0001733849 0.0005985166 -4.417084e-30)
(-0.0002015656 0.0006160502 1.012164e-28)
(-2.740239e-05 0.0001071398 -1.148424e-30)
(-7.037513e-05 0.0002786368 -1.955924e-29)
(-0.0001099007 0.0003975414 9.791656e-29)
(-0.0001452853 0.0004798235 -1.55213e-28)
(-0.0001781899 0.000532013 -3.345999e-28)
(-0.0002091461 0.0005631254 -5.15957e-30)
(-0.0002416663 0.0005828748 6.579395e-28)
(-2.813294e-05 9.552658e-05 -1.832428e-28)
(-7.304088e-05 0.0002452272 -3.832956e-28)
(-0.0001157763 0.0003518538 -1.074798e-27)
(-0.0001556592 0.0004300006 -1.045605e-27)
(-0.0001937244 0.0004837196 -3.010468e-28)
(-0.00022787 0.0005182171 -2.593734e-28)
(-0.0002583395 0.0005409185 3.463798e-28)
(-2.546667e-05 8.296126e-05 -1.941061e-28)
(-6.813317e-05 0.0002111113 -2.575405e-28)
(-0.0001085018 0.0003035528 -3.259158e-30)
(-0.0001492422 0.000377161 2.02922e-28)
(-0.0001891942 0.0004323583 -2.884763e-28)
(-0.0002243302 0.0004707657 -1.254207e-27)
(-0.0002512769 0.0004980331 -7.034274e-28)
(-2.061079e-05 6.87382e-05 1.929216e-28)
(-5.85488e-05 0.0001767475 -2.533541e-29)
(-9.487484e-05 0.0002573946 3.787816e-29)
(-0.000132761 0.0003263069 1.191085e-29)
(-0.0001714878 0.0003830358 5.433818e-29)
(-0.0002056212 0.0004253172 -4.584581e-28)
(-0.0002289037 0.0004558725 -6.709765e-28)
(-1.587765e-05 5.478381e-05 -1.117438e-29)
(-4.714491e-05 0.0001443918 -2.583322e-28)
(-7.754249e-05 0.0002159846 -8.46084e-29)
(-0.00011028 0.0002808826 2.913178e-28)
(-0.0001457192 0.0003379726 1.884672e-28)
(-0.0001776635 0.0003825982 -5.737589e-28)
(-0.0001980189 0.0004152438 -7.59038e-28)
(-1.171183e-05 4.287241e-05 -3.599667e-28)
(-3.443735e-05 0.0001163871 -1.925529e-28)
(-5.792213e-05 0.0001799951 -1.736556e-28)
(-8.558256e-05 0.0002413113 -2.7148e-28)
(-0.0001176572 0.0002981084 -7.265578e-28)
(-0.0001478696 0.0003437601 -1.844023e-27)
(-0.0001669264 0.0003779405 -2.582636e-27)
(-7.860484e-06 3.377243e-05 -1.816352e-28)
(-2.208375e-05 9.367935e-05 -2.634545e-28)
(-3.862175e-05 0.0001487749 -1.227932e-28)
(-6.152581e-05 0.0002059245 3.064099e-28)
(-9.097249e-05 0.0002615329 -4.016184e-28)
(-0.0001216177 0.0003081672 -1.910371e-28)
(-0.0001418138 0.0003437453 -5.286691e-29)
(-4.115669e-06 2.646091e-05 0)
(-1.17534e-05 7.499996e-05 -1.661893e-28)
(-2.21882e-05 0.0001213363 2.12318e-29)
(-4.061579e-05 0.0001718898 3.971904e-28)
(-6.914064e-05 0.0002252111 -3.230225e-28)
(-0.0001015649 0.0002725629 -2.317929e-28)
(-0.0001245318 0.0003104498 2.93497e-27)
(-1.2042e-06 1.985749e-05 0)
(-4.586574e-06 5.822536e-05 -4.640469e-29)
(-1.081706e-05 9.615563e-05 -3.813049e-29)
(-2.555369e-05 0.0001388132 1.85831e-28)
(-5.235381e-05 0.0001871861 2.689631e-28)
(-8.622534e-05 0.0002345829 6.267269e-28)
(-0.0001118629 0.0002755192 -1.420168e-28)
(2.35999e-07 1.370356e-05 -7.595047e-29)
(-8.614003e-07 4.270576e-05 0)
(-4.726632e-06 7.276066e-05 0)
(-1.614795e-05 0.0001070409 1.541929e-28)
(-3.980206e-05 0.0001481895 -4.312717e-28)
(-7.25194e-05 0.0001932759 1.834419e-29)
(-0.0001002948 0.0002366174 -2.032435e-28)
(5.792853e-07 8.930411e-06 -4.998428e-29)
(5.718127e-07 2.964655e-05 -1.402576e-29)
(-1.86982e-06 5.215763e-05 -2.03866e-29)
(-1.044492e-05 7.799419e-05 -2.63512e-28)
(-2.935118e-05 0.0001103671 -8.108659e-28)
(-5.830154e-05 0.0001500451 -3.076075e-28)
(-8.644378e-05 0.0001932281 3.669879e-28)
(5.703856e-07 5.999199e-06 0)
(1.074333e-06 2.043485e-05 5.186813e-29)
(-2.968907e-07 3.6232e-05 0)
(-6.117253e-06 5.41546e-05 -4.890782e-29)
(-1.979841e-05 7.725345e-05 -8.590426e-29)
(-4.283563e-05 0.0001080624 -1.861852e-28)
(-6.837415e-05 0.0001469396 2.979486e-28)
(5.812119e-07 4.703473e-06 0)
(1.43584e-06 1.521872e-05 -3.242343e-29)
(1.029017e-06 2.610668e-05 4.063218e-29)
(-2.275062e-06 3.765214e-05 0)
(-1.074978e-05 5.199009e-05 -1.13213e-28)
(-2.637244e-05 7.253841e-05 -2.887527e-28)
(-4.622664e-05 0.000102671 -3.22962e-29)
(5.958564e-07 3.890653e-06 0)
(1.784419e-06 1.241264e-05 -7.698197e-29)
(2.084317e-06 2.06293e-05 -2.91425e-31)
(6.30588e-07 2.826422e-05 -1.005996e-28)
(-3.529765e-06 3.645092e-05 -6.437514e-29)
(-1.188173e-05 4.801228e-05 7.187132e-29)
(-2.403675e-05 6.665795e-05 -9.762295e-28)
(5.511584e-07 3.165626e-06 1.840717e-29)
(1.939573e-06 1.01935e-05 -2.867873e-29)
(2.815352e-06 1.704108e-05 1.267724e-31)
(2.504939e-06 2.316131e-05 -3.45223e-29)
(7.848887e-07 2.863617e-05 0)
(-2.478396e-06 3.463059e-05 0)
(-7.554475e-06 4.420902e-05 5.11073e-29)
(4.568682e-07 2.580133e-06 1.391677e-29)
(1.867677e-06 8.413257e-06 -2.312078e-29)
(3.14806e-06 1.412055e-05 1.914741e-29)
(3.689549e-06 1.942501e-05 1.802751e-29)
(3.299119e-06 2.408411e-05 0)
(2.306287e-06 2.825883e-05 0)
(1.354873e-06 3.309282e-05 -7.127713e-29)
(3.382377e-07 2.10523e-06 -1.435873e-29)
(1.633111e-06 6.988629e-06 -2.977949e-29)
(3.099465e-06 1.175595e-05 -6.454976e-30)
(4.224697e-06 1.629577e-05 8.80196e-30)
(4.767949e-06 2.047439e-05 4.304091e-29)
(4.970119e-06 2.430416e-05 2.367421e-29)
(5.509327e-06 2.795366e-05 -6.614488e-30)
(2.162863e-07 1.70845e-06 -1.477533e-29)
(1.320383e-06 5.805311e-06 -3.051571e-30)
(2.791233e-06 9.800294e-06 6.383831e-30)
(4.216066e-06 1.366219e-05 6.735818e-30)
(5.366678e-06 1.733514e-05 0)
(6.342244e-06 2.080095e-05 -2.262861e-29)
(7.514587e-06 2.416281e-05 8.615266e-30)
(1.058945e-07 1.374552e-06 0)
(9.973049e-07 4.805743e-06 -6.067941e-30)
(2.36288e-06 8.150521e-06 -6.353648e-30)
(3.886339e-06 1.144021e-05 7.388618e-29)
(5.339643e-06 1.460638e-05 5.590219e-29)
(6.710715e-06 1.762568e-05 3.191928e-30)
(8.149552e-06 2.057383e-05 -7.421091e-30)
(1.556176e-08 1.08995e-06 -2.288413e-30)
(7.077195e-07 3.962334e-06 -3.019954e-30)
(1.922492e-06 6.757926e-06 0)
(3.418363e-06 9.54326e-06 -3.19266e-31)
(4.959296e-06 1.223594e-05 8.706983e-30)
(6.435013e-06 1.482721e-05 7.379277e-30)
(7.921116e-06 1.736528e-05 -1.413471e-29)
(-5.328879e-08 8.509003e-07 7.019775e-30)
(4.664005e-07 3.256899e-06 -1.74705e-29)
(1.523285e-06 5.606932e-06 -1.485323e-29)
(2.90748e-06 7.945202e-06 -4.693867e-29)
(4.395447e-06 1.022402e-05 5.741302e-31)
(5.85009e-06 1.244681e-05 0)
(7.275335e-06 1.464022e-05 1.381358e-29)
(-1.008467e-07 6.532095e-07 9.257626e-30)
(2.808398e-07 2.684094e-06 -5.450656e-30)
(1.192322e-06 4.655671e-06 6.152618e-30)
(2.441569e-06 6.621161e-06 0)
(3.808416e-06 8.556645e-06 -6.332213e-30)
(5.171597e-06 1.047674e-05 0)
(6.492933e-06 1.240174e-05 4.418227e-30)
(-1.296563e-07 4.908783e-07 0)
(1.465822e-07 2.20986e-06 0)
(9.239091e-07 3.868679e-06 -1.294532e-29)
(2.023855e-06 5.530988e-06 0)
(3.260339e-06 7.193739e-06 -1.064095e-29)
(4.507659e-06 8.870231e-06 -4.606833e-30)
(5.714118e-06 1.058638e-05 3.657969e-30)
(-1.468668e-07 3.609296e-07 -4.870148e-30)
(4.868107e-08 1.820361e-06 0)
(7.070529e-07 3.222639e-06 -2.340699e-30)
(1.673493e-06 4.644347e-06 8.24476e-30)
(2.778668e-06 6.085583e-06 -4.447615e-30)
(3.902614e-06 7.562054e-06 -7.692215e-30)
(4.992791e-06 9.103646e-06 -3.058807e-30)
(-1.521202e-07 2.519726e-07 -2.872358e-30)
(-1.38796e-08 1.503151e-06 -3.451168e-30)
(5.426489e-07 2.697721e-06 0)
(1.387401e-06 3.923865e-06 1.042921e-29)
(2.365909e-06 5.182245e-06 6.317933e-30)
(3.364515e-06 6.48839e-06 -1.287252e-29)
(4.330206e-06 7.870634e-06 -1.973339e-29)
(-1.513555e-07 1.632912e-07 -3.413372e-30)
(-5.577128e-08 1.243666e-06 -4.041751e-30)
(4.181627e-07 2.27072e-06 3.925168e-30)
(1.155862e-06 3.336618e-06 0)
(2.016592e-06 4.442092e-06 0)
(2.892298e-06 5.6003e-06 -2.662298e-30)
(3.728294e-06 6.841836e-06 5.467302e-29)
(-1.456049e-07 9.106274e-08 -2.757919e-30)
(-8.025919e-08 1.031976e-06 -3.449341e-30)
(3.254105e-07 1.92172e-06 3.173636e-30)
(9.703885e-07 2.855534e-06 0)
(1.727272e-06 3.83384e-06 6.220184e-30)
(2.496912e-06 4.867518e-06 6.858997e-34)
(3.233828e-06 5.99141e-06 -6.608197e-30)
(-1.371433e-07 3.164951e-08 0)
(-9.301493e-08 8.575182e-07 -2.750332e-30)
(2.565957e-07 1.633769e-06 2.682378e-30)
(8.222161e-07 2.458223e-06 0)
(1.489657e-06 3.331536e-06 -8.355136e-30)
(2.168825e-06 4.263359e-06 -1.258851e-29)
(2.816472e-06 5.286432e-06 -6.543493e-30)
(-1.274112e-07 -1.797718e-08 1.87872e-30)
(-9.797263e-08 7.116776e-07 -1.489231e-30)
(2.052501e-07 1.392717e-06 5.94003e-31)
(7.030799e-07 2.125607e-06 -3.043605e-30)
(1.29391e-06 2.911704e-06 -3.004936e-30)
(1.897458e-06 3.760419e-06 -1.306681e-30)
(2.472617e-06 4.702489e-06 0)
(-1.173465e-07 -6.018513e-08 2.928022e-30)
(-9.816222e-08 5.875256e-07 0)
(1.662949e-07 1.187227e-06 0)
(6.058572e-07 1.842046e-06 4.620241e-30)
(1.12964e-06 2.554309e-06 5.713808e-30)
(1.66792e-06 3.339552e-06 -9.191787e-31)
(2.182723e-06 4.215579e-06 0)
(-1.074193e-07 -9.692219e-08 1.102826e-30)
(-9.540119e-08 4.795408e-07 -1.486576e-30)
(1.363809e-07 1.008455e-06 -1.499595e-30)
(5.261099e-07 1.595152e-06 -3.091484e-30)
(9.938157e-07 2.242843e-06 -2.132907e-30)
(1.483492e-06 2.971857e-06 0)
(1.947173e-06 3.79159e-06 -3.221582e-31)
(-9.80478e-08 -1.29515e-07 -5.855149e-31)
(-9.122457e-08 3.836053e-07 -3.311307e-30)
(1.125099e-07 8.493982e-07 -2.522238e-30)
(4.58574e-07 1.375274e-06 -1.782866e-30)
(8.761434e-07 1.965239e-06 0)
(1.314469e-06 2.639243e-06 5.940033e-31)
(1.730647e-06 3.405891e-06 6.343449e-32)
(-8.94471e-08 -1.591084e-07 -3.756802e-32)
(-8.664186e-08 2.965327e-07 -2.233098e-30)
(9.27066e-08 7.049424e-07 -2.90335e-30)
(4.000782e-07 1.175392e-06 -3.603177e-30)
(7.731761e-07 1.712579e-06 -3.054686e-30)
(1.164731e-06 2.335734e-06 8.688717e-31)
(1.537662e-06 3.052942e-06 2.969738e-30)
(-8.170646e-08 -1.864553e-07 -3.550802e-31)
(-8.208855e-08 2.160427e-07 -9.654825e-31)
(7.565154e-08 5.711953e-07 -4.241517e-31)
(3.477769e-07 9.900714e-07 0)
(6.794654e-07 1.481374e-06 -2.462587e-29)
(1.029341e-06 2.05784e-06 -3.10796e-29)
(1.364457e-06 2.724965e-06 -6.144292e-30)
(-7.476096e-08 -2.122018e-07 -8.059776e-31)
(-7.762415e-08 1.40102e-07 5.16465e-31)
(6.14987e-08 4.448574e-07 4.47601e-30)
(3.041173e-07 8.148258e-07 3.013946e-30)
(6.049937e-07 1.261262e-06 0)
(9.187233e-07 1.794175e-06 2.289592e-31)
(1.212362e-06 2.414563e-06 3.051209e-30)
(-6.85164e-08 -2.369814e-07 -5.975701e-31)
(-7.327978e-08 6.690855e-08 6.532094e-31)
(4.959654e-08 3.230166e-07 2.981603e-30)
(2.656409e-07 6.458515e-07 1.50473e-30)
(5.339049e-07 1.046898e-06 0)
(8.136893e-07 1.536547e-06 3.470288e-30)
(1.075783e-06 2.115845e-06 6.081727e-30)
(-6.284129e-08 -2.613557e-07 5.877527e-31)
(-6.87619e-08 -5.216544e-09 9.592239e-31)
(4.033084e-08 2.030807e-07 1.489769e-30)
(2.334106e-07 4.796696e-07 1.502811e-30)
(4.728344e-07 8.360091e-07 0)
(7.223908e-07 1.283467e-06 0)
(9.560545e-07 1.823705e-06 0)
(-5.748234e-08 -2.859053e-07 0)
(-6.348666e-08 -7.79505e-08 2.793933e-31)
(3.440652e-08 8.219881e-08 0)
(2.081758e-07 3.123588e-07 -3.351379e-30)
(4.224873e-07 6.242995e-07 -3.068189e-30)
(6.453788e-07 1.030121e-06 -3.033482e-30)
(8.535099e-07 1.532524e-06 -3.645709e-30)
(-5.217369e-08 -3.112488e-07 3.018495e-31)
(-5.682971e-08 -1.532237e-07 0)
(3.20973e-08 -4.28543e-08 2.983556e-30)
(1.882155e-07 1.402727e-07 -2.17144e-29)
(3.817035e-07 4.079457e-07 -2.37379e-29)
(5.83063e-07 7.708665e-07 0)
(7.687743e-07 1.236178e-06 -7.420562e-31)
(-4.653062e-08 -3.382474e-07 4.268639e-31)
(-4.724965e-08 -2.335607e-07 0)
(3.750713e-08 -1.761606e-07 1.49318e-30)
(1.847072e-07 -4.355854e-08 1.519464e-30)
(3.619579e-07 1.778027e-07 1.510288e-30)
(5.395111e-07 4.984221e-07 -7.178523e-31)
(7.03476e-07 9.276564e-07 7.685676e-31)
(-4.003082e-08 -3.679555e-07 0)
(-3.356712e-08 -3.221964e-07 2.030443e-30)
(5.069126e-08 -3.229332e-07 1.492623e-30)
(1.897031e-07 -2.454194e-07 -1.228469e-30)
(3.529691e-07 -7.351328e-08 8.326205e-31)
(5.13458e-07 2.048912e-07 -8.26404e-31)
(6.583049e-07 5.990707e-07 3.907632e-32)
(-3.189209e-08 -4.01933e-07 0)
(-1.32383e-08 -4.236225e-07 6.622971e-31)
(7.583185e-08 -4.901692e-07 -6.426724e-31)
(2.114209e-07 -4.739697e-07 1.765425e-31)
(3.640287e-07 -3.553489e-07 2.354278e-30)
(5.089842e-07 -1.199418e-07 3.000494e-30)
(6.352264e-07 2.408347e-07 -9.171057e-31)
(-2.089313e-08 -4.42193e-07 0)
(1.742618e-08 -5.441905e-07 0)
(1.183151e-07 -6.881086e-07 -7.419283e-31)
(2.556726e-07 -7.418075e-07 1.332986e-30)
(4.002117e-07 -6.80991e-07 4.035247e-32)
(5.29848e-07 -4.888974e-07 0)
(6.363772e-07 -1.584657e-07 0)
(-5.020917e-09 -4.921681e-07 5.955849e-31)
(6.410132e-08 -6.938245e-07 -7.201151e-31)
(1.862262e-07 -9.317486e-07 -1.864407e-30)
(3.306912e-07 -1.066809e-06 -9.303392e-32)
(4.681302e-07 -1.068587e-06 -3.888583e-32)
(5.803733e-07 -9.18408e-07 2.992976e-30)
(6.636565e-07 -6.124713e-07 1.889819e-35)
(1.900854e-08 -5.573412e-07 3.237883e-32)
(1.366816e-07 -8.881879e-07 -7.901937e-31)
(2.926678e-07 -1.244059e-06 -1.900487e-30)