/*--------------------------------*- C++ -*----------------------------------*\
| =========                 |                                                 |
| \\      /  F ield         | OpenFOAM: The Open Source CFD Toolbox           |
|  \\    /   O peration     | Version:  2206                                  |
|   \\  /    A nd           | Website:  www.openfoam.com                      |
|    \\/     M anipulation  |                                                 |
\*---------------------------------------------------------------------------*/
FoamFile
{
    version     2.0;
    format      ascii;
    arch        "LSB;label=32;scalar=64";
    class       volVectorField;
    location    "1.8";
    object      U.a_0;
}
// * * * * * * * * * * * * * * * * * * * * * * * * * * * * * * * * * * * * * //

dimensions      [0 1 -1 0 0 0 0];

internalField   nonuniform List<vector> 
13078
(
(5.360699e-06 -8.974403e-05 1.475726e-27)
(5.619039e-07 -4.562337e-05 8.443606e-33)
(-7.026572e-08 -2.724017e-05 -4.084223e-29)
(-1.514992e-07 -1.786252e-05 0)
(-1.840338e-07 -1.337276e-05 -1.161184e-29)
(-2.031872e-07 -1.033747e-05 -1.166704e-29)
(-2.122394e-07 -8.042409e-06 -1.170533e-29)
(-3.452477e-05 -3.869735e-05 0)
(-1.773502e-05 -3.15881e-05 -1.778255e-32)
(-6.50074e-06 -2.175662e-05 0)
(-2.931557e-06 -1.615161e-05 0)
(-1.67737e-06 -1.262976e-05 2.396038e-34)
(-1.096841e-06 -9.963967e-06 2.426578e-34)
(-7.946159e-07 -7.827937e-06 7.470137e-34)
(-1.183588e-05 -1.009738e-05 3.007607e-31)
(-1.028239e-05 -1.533667e-05 3.652319e-31)
(-6.392537e-06 -1.48337e-05 1.255118e-29)
(-3.871603e-06 -1.295242e-05 2.324635e-29)
(-2.481663e-06 -1.085763e-05 1.163921e-29)
(-1.701194e-06 -8.918031e-06 0)
(-1.242886e-06 -7.168913e-06 -6.666071e-35)
(-3.459723e-06 -3.774794e-06 -1.750377e-31)
(-5.279978e-06 -8.125895e-06 7.905169e-31)
(-4.680539e-06 -9.804574e-06 2.22438e-30)
(-3.558251e-06 -9.7093e-06 1.425867e-30)
(-2.613956e-06 -8.774459e-06 3.333487e-33)
(-1.949968e-06 -7.544607e-06 0)
(-1.498525e-06 -6.234026e-06 4.936166e-34)
(-1.346989e-06 -2.067125e-06 -2.954017e-31)
(-2.845775e-06 -4.816372e-06 -6.785198e-31)
(-3.147544e-06 -6.490049e-06 6.917089e-31)
(-2.84377e-06 -7.040321e-06 -1.776478e-31)
(-2.379332e-06 -6.820567e-06 -1.396636e-29)
(-1.938615e-06 -6.127583e-06 -2.912893e-35)
(-1.584461e-06 -5.19294e-06 1.173758e-29)
(-6.052388e-07 -1.340704e-06 0)
(-1.601755e-06 -3.081128e-06 7.424898e-31)
(-2.084997e-06 -4.407282e-06 -7.49866e-31)
(-2.15482e-06 -5.069747e-06 6.178184e-31)
(-2.010298e-06 -5.157628e-06 1.507042e-30)
(-1.788077e-06 -4.819698e-06 -1.184744e-29)
(-1.556712e-06 -4.168017e-06 -2.355527e-29)
(-3.117522e-07 -9.769684e-07 0)
(-9.550166e-07 -2.103817e-06 4.468442e-31)
(-1.400021e-06 -3.077957e-06 -1.148727e-29)
(-1.610898e-06 -3.660429e-06 -1.205497e-29)
(-1.649723e-06 -3.840747e-06 2.101761e-30)
(-1.584816e-06 -3.670536e-06 1.49531e-30)
(-1.47025e-06 -3.219713e-06 0)
(-1.779463e-07 -7.677651e-07 -6.760549e-31)
(-6.051239e-07 -1.50832e-06 4.066417e-31)
(-9.73473e-07 -2.202154e-06 4.551095e-31)
(-1.224668e-06 -2.656837e-06 0)
(-1.354552e-06 -2.82519e-06 1.19567e-30)
(-1.389916e-06 -2.713475e-06 1.50016e-30)
(-1.363794e-06 -2.361093e-06 1.499847e-30)
(-1.082382e-07 -6.342681e-07 3.239252e-32)
(-4.055918e-07 -1.117762e-06 -7.853851e-31)
(-7.065332e-07 -1.60381e-06 1.071968e-30)
(-9.5805e-07 -1.92633e-06 1.515599e-30)
(-1.132393e-06 -2.039336e-06 3.691374e-30)
(-1.229991e-06 -1.930562e-06 1.502793e-30)
(-1.266669e-06 -1.61587e-06 0)
(-6.810457e-08 -5.419962e-07 5.354186e-31)
(-2.866737e-07 -8.443619e-07 -6.604808e-31)
(-5.388931e-07 -1.172695e-06 -3.560965e-31)
(-7.803151e-07 -1.377772e-06 1.41661e-30)
(-9.761802e-07 -1.421905e-06 -3.907807e-32)
(-1.112567e-06 -1.287319e-06 0)
(-1.193552e-06 -9.769498e-07 0)
(-4.305283e-08 -4.740061e-07 0)
(-2.133512e-07 -6.417411e-07 0)
(-4.337041e-07 -8.470605e-07 -6.443039e-31)
(-6.661188e-07 -9.515492e-07 1.268812e-30)
(-8.742958e-07 -9.256842e-07 4.058171e-32)
(-1.036647e-06 -7.516858e-07 0)
(-1.149777e-06 -4.25827e-07 0)
(-2.640972e-08 -4.212121e-07 0)
(-1.669838e-07 -4.837124e-07 4.704329e-31)
(-3.687688e-07 -5.897157e-07 -4.758132e-31)
(-5.973218e-07 -6.081328e-07 -2.731334e-30)
(-8.156899e-07 -5.157383e-07 -7.539555e-31)
(-9.979497e-07 -2.967159e-07 0)
(-1.136099e-06 5.584378e-08 2.107464e-30)
(-1.469478e-08 -3.779503e-07 0)
(-1.372842e-07 -3.54331e-07 -1.212928e-30)
(-3.306496e-07 -3.774628e-07 -1.49884e-30)
(-5.614123e-07 -3.210011e-07 -1.02233e-30)
(-7.913953e-07 -1.665888e-07 6.717183e-31)
(-9.915671e-07 9.912715e-08 -7.164782e-31)
(-1.151257e-06 4.845551e-07 3.94612e-32)
(-5.875363e-09 -3.40898e-07 1.248165e-31)
(-1.183694e-07 -2.436695e-07 0)
(-3.109251e-07 -1.949859e-07 -1.500232e-30)
(-5.496862e-07 -7.188902e-08 -1.529322e-30)
(-7.943595e-07 1.402811e-07 1.032192e-30)
(-1.012895e-06 4.527553e-07 -5.363781e-31)
(-1.193165e-06 8.744126e-07 6.49585e-31)
(1.234755e-09 -3.077897e-07 -8.111148e-32)
(-1.065134e-07 -1.450535e-07 0)
(-3.036927e-07 -3.192328e-08 -2.999465e-30)
(-5.517745e-07 1.518106e-07 2.122731e-29)
(-8.135792e-07 4.181514e-07 2.495828e-29)
(-1.057082e-06 7.774967e-07 0)
(-1.259665e-06 1.237329e-06 -5.526118e-31)
(7.416594e-09 -2.770813e-07 0)
(-9.97253e-08 -5.382162e-08 -2.900967e-31)
(-3.078056e-07 1.191607e-07 0)
(-5.748481e-07 3.589558e-07 3.172775e-30)
(-8.590912e-07 6.765525e-07 3.09963e-30)
(-1.124938e-06 1.083649e-06 3.070229e-30)
(-1.349808e-06 1.583181e-06 2.715046e-30)
(1.32878e-08 -2.475957e-07 0)
(-9.592766e-08 3.348558e-08 -1.171771e-30)
(-3.184136e-07 2.637625e-07 -1.49986e-30)
(-6.076035e-07 5.581163e-07 -1.516696e-30)
(-9.187756e-07 9.267738e-07 0)
(-1.211844e-06 1.380398e-06 0)
(-1.461662e-06 1.920608e-06 0)
(1.917852e-08 -2.185256e-07 -1.123928e-31)
(-9.426839e-08 1.194318e-07 -1.669181e-30)
(-3.348667e-07 4.061322e-07 -3.004341e-30)
(-6.508293e-07 7.543957e-07 -1.520351e-30)
(-9.930678e-07 1.174139e-06 0)
(-1.316874e-06 1.674695e-06 -3.228444e-30)
(-1.594213e-06 2.256856e-06 -6.186401e-30)
(2.531813e-08 -1.891003e-07 -4.506246e-31)
(-9.419895e-08 2.06244e-07 -1.963799e-30)
(-3.565223e-07 5.499414e-07 -4.514378e-30)
(-7.036785e-07 9.527574e-07 -3.049089e-30)
(-1.081137e-06 1.424071e-06 0)
(-1.439292e-06 1.972345e-06 -4.524258e-31)
(-1.746855e-06 2.59821e-06 -3.110009e-30)
(3.182081e-08 -1.586535e-07 -1.319368e-30)
(-9.553933e-08 2.959646e-07 -3.304687e-30)
(-3.832495e-07 6.985252e-07 -1.532195e-30)
(-7.654683e-07 1.157611e-06 0)
(-1.17639e-06 1.679611e-06 2.50132e-29)
(-1.57112e-06 2.275647e-06 3.165972e-29)
(-1.918283e-06 2.95019e-06 6.276654e-30)
(3.871721e-08 -1.264096e-07 -2.338485e-30)
(-9.861547e-08 3.907577e-07 -3.481131e-30)
(-4.162192e-07 8.552825e-07 -2.496067e-30)
(-8.404066e-07 1.373427e-06 1.25133e-30)
(-1.295892e-06 1.947029e-06 3.110305e-30)
(-1.732619e-06 2.593194e-06 -1.03596e-31)
(-2.114543e-06 3.319033e-06 -2.464895e-30)
(4.583978e-08 -9.16739e-08 0)
(-1.04049e-07 4.928582e-07 -1.179506e-30)
(-4.561091e-07 1.023941e-06 -1.024771e-30)
(-9.270082e-07 1.605225e-06 -4.608258e-30)
(-1.431058e-06 2.237195e-06 0)
(-1.914135e-06 2.937247e-06 -5.547409e-31)
(-2.33486e-06 3.712661e-06 6.521629e-32)
(5.279446e-08 -5.349025e-08 2.620854e-30)
(-1.131949e-07 6.049734e-07 0)
(-5.055835e-07 1.208869e-06 0)
(-1.029758e-06 1.85908e-06 3.010912e-30)
(-1.588661e-06 2.554552e-06 5.581327e-30)
(-2.122086e-06 3.312384e-06 0)
(-2.584279e-06 4.140143e-06 -1.480866e-30)
(5.893275e-08 -1.066029e-08 6.430439e-30)
(-1.284538e-07 7.305982e-07 0)
(-5.687724e-07 1.415812e-06 0)
(-1.154499e-06 2.142896e-06 3.915296e-31)
(-1.77496e-06 2.909197e-06 2.98694e-30)
(-2.355399e-06 3.726233e-06 -2.509558e-30)
(-2.861736e-06 4.610087e-06 0)
(6.310778e-08 3.827746e-08 3.892521e-30)
(-1.534609e-07 8.741995e-07 1.505043e-30)
(-6.519405e-07 1.652262e-06 5.968042e-30)
(-1.310327e-06 2.46719e-06 3.114063e-30)
(-2.004431e-06 3.314602e-06 3.23481e-30)
(-2.648601e-06 4.199165e-06 -3.130754e-30)
(-3.206114e-06 5.149515e-06 0)
(6.374365e-08 9.526371e-08 0)
(-1.931807e-07 1.041411e-06 -5.561027e-30)
(-7.631262e-07 1.927631e-06 5.365851e-30)
(-1.507186e-06 2.845211e-06 0)
(-2.285654e-06 3.788113e-06 1.882026e-30)
(-3.002496e-06 4.760587e-06 1.305884e-29)
(-3.619963e-06 5.793295e-06 6.81904e-30)
(5.839795e-08 1.626357e-07 -5.398366e-30)
(-2.548376e-07 1.239244e-06 -6.667474e-30)
(-9.138227e-07 2.253695e-06 6.245207e-30)
(-1.760295e-06 3.293644e-06 0)
(-2.637735e-06 4.351724e-06 -6.441712e-30)
(-3.44063e-06 5.432702e-06 -1.021707e-33)
(-4.130583e-06 6.569244e-06 6.918631e-30)
(4.370395e-08 2.432629e-07 -6.426251e-30)
(-3.480317e-07 1.476039e-06 -7.715425e-30)
(-1.119287e-06 2.64464e-06 7.438786e-30)
(-2.088886e-06 3.832552e-06 0)
(-3.082506e-06 5.031496e-06 0)
(-3.985979e-06 6.247689e-06 -5.450266e-30)
(-4.755272e-06 7.509701e-06 -5.091228e-29)
(1.46764e-08 3.402915e-07 -8.635489e-30)
(-4.860778e-07 1.761446e-06 -1.067293e-29)
(-1.398867e-06 3.116809e-06 0)
(-2.515755e-06 4.485e-06 1.544351e-30)
(-3.643543e-06 5.856059e-06 -6.595732e-30)
(-4.663644e-06 7.237307e-06 -6.11613e-30)
(-5.541832e-06 8.656542e-06 2.083363e-29)
(-3.274528e-08 4.565527e-07 -8.75162e-30)
(-6.811297e-07 2.103301e-06 0)
(-1.775136e-06 3.688598e-06 -1.315632e-29)
(-3.066603e-06 5.277929e-06 6.167495e-30)
(-4.342268e-06 6.858694e-06 -8.462362e-30)
(-5.478353e-06 8.435467e-06 -1.502662e-29)
(-6.447973e-06 1.003521e-05 -6.34504e-30)
(-1.085472e-07 5.915873e-07 0)
(-9.608731e-07 2.513863e-06 0)
(-2.278525e-06 4.380585e-06 -2.335845e-29)
(-3.771855e-06 6.243462e-06 0)
(-5.204681e-06 8.083949e-06 -1.983657e-29)
(-6.450271e-06 9.8996e-06 -8.828837e-30)
(-7.493547e-06 1.170874e-05 7.44303e-30)
(-2.202298e-07 7.559404e-07 -1.420085e-29)
(-1.34068e-06 3.001541e-06 1.152273e-29)
(-2.928834e-06 5.207542e-06 1.205168e-29)
(-4.658565e-06 7.417423e-06 0)
(-6.249678e-06 9.585062e-06 -1.159569e-29)
(-7.586858e-06 1.170302e-05 0)
(-8.686933e-06 1.377802e-05 -5.805002e-30)
(-3.813231e-07 9.49896e-07 -1.370313e-29)
(-1.855985e-06 3.574971e-06 1.678223e-29)
(-3.765819e-06 6.187871e-06 4.629411e-29)
(-5.739909e-06 8.827663e-06 3.390267e-29)
(-7.472321e-06 1.141669e-05 -6.177499e-30)
(-8.851204e-06 1.392271e-05 7.284564e-30)
(-9.96294e-06 1.635261e-05 -7.489845e-30)
(-6.05522e-07 1.176046e-06 1.154391e-30)
(-2.545531e-06 4.263438e-06 1.547764e-30)
(-4.839234e-06 7.354318e-06 2.499447e-29)
(-7.052192e-06 1.051968e-05 2.482707e-29)
(-8.836554e-06 1.363115e-05 -3.015028e-29)
(-1.013249e-05 1.662204e-05 1.494402e-29)
(-1.114378e-05 1.951127e-05 3.085311e-29)
(-9.082872e-07 1.436397e-06 -1.154345e-30)
(-3.438857e-06 5.069196e-06 -1.55691e-30)
(-6.176122e-06 8.75586e-06 1.441851e-29)
(-8.555741e-06 1.253499e-05 -4.336276e-29)
(-1.022309e-05 1.626773e-05 -7.46255e-29)
(-1.120813e-05 1.983809e-05 4.696184e-31)
(-1.188964e-05 2.325313e-05 0)
(-1.307611e-06 1.735836e-06 0)
(-4.569931e-06 6.014599e-06 0)
(-7.787665e-06 1.042989e-05 2.396474e-29)
(-1.023651e-05 1.494311e-05 3.687666e-29)
(-1.151703e-05 1.938404e-05 9.734359e-29)
(-1.178667e-05 2.357911e-05 8.428304e-29)
(-1.175586e-05 2.747262e-05 0)
(-1.821027e-06 2.089155e-06 -2.308481e-30)
(-5.957751e-06 7.159183e-06 3.145039e-30)
(-9.656395e-06 1.249343e-05 6.740052e-30)
(-1.20181e-05 1.792602e-05 0)
(-1.262244e-05 2.31123e-05 5.026726e-29)
(-1.173873e-05 2.797637e-05 -2.035747e-29)
(-1.031877e-05 3.337484e-05 -6.09855e-29)
(-2.463896e-06 2.536217e-06 -2.335058e-29)
(-7.615968e-06 8.633137e-06 3.177891e-30)
(-1.179364e-05 1.513919e-05 -3.048509e-29)
(-1.388329e-05 2.161756e-05 0)
(-1.357985e-05 2.798429e-05 5.536907e-29)
(-1.090933e-05 3.485957e-05 -1.725236e-28)
(-6.232444e-06 4.494909e-05 -6.172431e-28)
(-3.248475e-06 3.148087e-06 -2.660051e-29)
(-9.584269e-06 1.061817e-05 -3.27498e-29)
(-1.43076e-05 1.853937e-05 -3.733771e-29)
(-1.633285e-05 2.684959e-05 -2.020336e-29)
(-1.490184e-05 3.638492e-05 -6.357182e-29)
(-9.192839e-06 4.871728e-05 -7.650728e-29)
(8.878329e-07 6.669374e-05 -4.62605e-28)
(-4.120638e-06 3.938877e-06 0)
(-1.200111e-05 1.332211e-05 3.775692e-29)
(-1.815089e-05 2.399525e-05 5.601156e-29)
(-2.079303e-05 3.649398e-05 1.563334e-29)
(-1.793844e-05 5.173715e-05 -1.622114e-28)
(-7.992998e-06 7.144436e-05 -9.119558e-29)
(8.73188e-06 9.917827e-05 0)
(-5.279946e-06 5.16647e-06 4.406478e-29)
(-1.617203e-05 1.850137e-05 9.85073e-29)
(-2.515215e-05 3.413137e-05 3.180025e-29)
(-2.894849e-05 5.243971e-05 2.383261e-28)
(-2.449943e-05 7.414845e-05 -2.422135e-28)
(-9.832049e-06 0.000101775 1.185109e-28)
(1.314939e-05 0.00013947 -4.160903e-28)
(-7.882662e-06 8.309003e-06 6.529933e-29)
(-2.299952e-05 2.792613e-05 -6.806118e-30)
(-3.516241e-05 4.920252e-05 0)
(-3.986847e-05 7.249738e-05 1.775389e-29)
(-3.348323e-05 9.975954e-05 4.341833e-28)
(-1.36874e-05 0.0001345099 7.248645e-28)
(1.600208e-05 0.0001799324 2.906233e-28)
(-1.123385e-05 1.360535e-05 -1.039987e-28)
(-3.014155e-05 4.069899e-05 1.609007e-29)
(-4.407569e-05 6.599942e-05 1.934688e-29)
(-4.852031e-05 9.217272e-05 -5.576259e-28)
(-3.96913e-05 0.0001237857 1.554174e-28)
(-1.449939e-05 0.0001653353 3.291772e-28)
(2.085697e-05 0.0002159301 3.657797e-28)
(-1.299456e-05 1.997284e-05 -1.375593e-28)
(-3.286801e-05 5.355e-05 0)
(-4.639526e-05 8.12274e-05 3.885973e-29)
(-4.921379e-05 0.0001098104 5.62075e-29)
(-3.687384e-05 0.0001458873 -6.453052e-28)
(-6.666287e-06 0.0001927721 -1.406558e-27)
(3.238221e-05 0.0002463012 1.332141e-27)
(-1.101642e-05 2.5406e-05 0)
(-2.808544e-05 6.431987e-05 3.867032e-29)
(-3.893013e-05 9.481307e-05 4.330381e-29)
(-3.817786e-05 0.0001274252 -2.869675e-29)
(-2.071548e-05 0.0001686421 4.082871e-28)
(1.437788e-05 0.0002184244 1.990643e-27)
(5.45471e-05 0.0002718257 3.181375e-27)
(-6.210305e-06 2.954479e-05 0)
(-1.65664e-05 7.421728e-05 7.961915e-29)
(-2.094011e-05 0.0001092921 9.4904e-29)
(-1.359428e-05 0.0001473223 -1.261807e-28)
(1.080417e-05 0.0001937351 1.071899e-27)
(5.076558e-05 0.0002445826 1.395148e-27)
(9.163276e-05 0.0002956478 2.940639e-29)
(-5.521978e-07 3.4127e-05 -1.881631e-28)
(-9.541119e-07 8.66408e-05 2.22043e-28)
(4.564893e-06 0.0001283867 1.209897e-28)
(2.217887e-05 0.0001723808 6.879333e-30)
(5.571654e-05 0.0002219196 -2.424483e-28)
(0.0001013808 0.00027305 4.467243e-28)
(0.0001436947 0.0003215844 1.391136e-27)
(5.507029e-06 4.080202e-05 -2.113851e-28)
(1.696581e-05 0.0001047745 2.612694e-28)
(3.365795e-05 0.0001551062 3.600245e-28)
(6.313434e-05 0.0002051505 -2.701229e-28)
(0.000108866 0.000257451 -7.707876e-28)
(0.0001626434 0.0003074138 4.234536e-27)
(0.0002080731 0.0003527767 4.738764e-27)
(1.231825e-05 5.055555e-05 2.884666e-29)
(3.61396e-05 0.0001301728 -2.91627e-28)
(6.442173e-05 0.0001911129 6.020617e-28)
(0.0001052568 0.0002488938 -5.188522e-29)
(0.0001615729 0.0003043948 -1.042414e-27)
(0.000222207 0.0003522706 -8.556384e-28)
(0.000271972 0.0003918687 5.172014e-28)
(1.989327e-05 6.330055e-05 -1.831703e-31)
(5.50392e-05 0.0001631537 -3.244963e-28)
(9.410346e-05 0.0002376313 8.269266e-30)
(0.0001444862 0.0003044382 -4.923264e-29)
(0.0002059928 0.0003616275 -1.024123e-27)
(0.0002679115 0.0004049133 -5.304736e-28)
(0.0003198013 0.0004380875 -1.572484e-27)
(2.77265e-05 7.796806e-05 -3.405431e-29)
(7.227085e-05 0.0002019974 -8.397869e-31)
(0.000118796 0.0002933652 -8.938039e-28)
(0.0001725192 0.0003683203 3.710508e-28)
(0.0002312248 0.0004235932 -2.486428e-28)
(0.0002878804 0.0004597546 3.752274e-28)
(0.0003386098 0.0004852807 1.306958e-27)
(3.325112e-05 9.247846e-05 1.578061e-28)
(8.302802e-05 0.0002428752 2.348191e-31)
(0.0001322753 0.0003524285 -1.366306e-27)
(0.0001811941 0.0004329009 -6.152535e-28)
(0.0002300107 0.000484494 2.239869e-27)
(0.0002768354 0.0005128913 2.907517e-27)
(0.0003231197 0.0005277347 -3.095302e-27)
(3.461957e-05 0.0001063751 1.771832e-28)
(8.296443e-05 0.0002822894 -1.340653e-28)
(0.0001258033 0.0004061607 -1.313287e-28)
(0.0001637373 0.0004904633 2.28106e-29)
(0.0001989458 0.0005391175 -7.239679e-28)
(0.0002337691 0.0005607571 -5.099098e-29)
(0.0002736886 0.0005629752 1.143103e-27)
(3.089913e-05 0.0001173453 -5.434796e-31)
(7.119487e-05 0.0003141345 -1.507507e-28)
(0.0001035015 0.0004501098 2.543734e-30)
(0.0001293661 0.0005365842 8.815723e-29)
(0.0001516981 0.0005828978 1.989902e-28)
(0.0001738259 0.0005989688 2.547646e-29)
(0.0001990102 0.0005894357 -1.251266e-27)
(2.261511e-05 0.0001240151 -1.67106e-29)
(4.930217e-05 0.0003352027 -2.88565e-29)
(6.848137e-05 0.0004802314 -8.468043e-29)
(8.197584e-05 0.0005685932 1.360491e-29)
(9.25656e-05 0.0006141431 1.679852e-28)
(0.0001024067 0.0006288306 -6.746508e-29)
(0.000113039 0.0006165777 8.05268e-28)
(1.006142e-05 0.0001262316 -1.789226e-29)
(1.935005e-05 0.0003439729 -9.193405e-29)
(2.38593e-05 0.0004942891 -2.058893e-28)
(2.520472e-05 0.0005847127 1.370673e-28)
(2.473488e-05 0.0006316741 -3.384913e-29)
(2.281968e-05 0.0006492011 -6.489106e-29)
(1.925088e-05 0.0006445369 -7.214996e-28)
(-4.499718e-06 0.0001255028 -1.791381e-29)
(-1.347501e-05 0.0003420799 -8.990359e-29)
(-2.368169e-05 0.0004924715 7.411145e-29)
(-3.39906e-05 0.0005844032 1.234946e-28)
(-4.488169e-05 0.0006341244 -4.03796e-28)
(-5.747399e-05 0.0006564025 -4.433517e-28)
(-7.31012e-05 0.0006613258 -1.286127e-27)
(-1.630435e-05 0.0001222868 -2.428964e-29)
(-4.109897e-05 0.0003303643 2.749149e-29)
(-6.418493e-05 0.0004753329 2.141927e-29)
(-8.494249e-05 0.0005674817 -2.619023e-30)
(-0.0001048456 0.0006202944 1.564525e-31)
(-0.0001259077 0.0006472219 5.302749e-30)
(-0.0001500812 0.0006597509 -5.124857e-29)
(-2.395517e-05 0.0001158156 -4.523097e-30)
(-6.021302e-05 0.0003087086 -9.108136e-30)
(-9.315199e-05 0.0004440233 2.120109e-28)
(-0.0001227696 0.0005349128 -3.602891e-29)
(-0.0001506518 0.0005905461 -1.907152e-28)
(-0.0001785535 0.0006213169 -7.044124e-29)
(-0.0002090334 0.0006386363 1.158083e-27)
(-2.821643e-05 0.0001064629 1.446909e-28)
(-7.09018e-05 0.0002794621 9.559722e-31)
(-0.0001101745 0.0004021612 2.249534e-28)
(-0.000146448 0.0004899685 1.225733e-29)
(-0.0001813376 0.0005476471 -6.967076e-28)
(-0.0002147086 0.0005820725 -8.704641e-29)
(-0.0002500089 0.0006016965 7.414758e-28)
(-2.892393e-05 9.523391e-05 1.550826e-28)
(-7.298822e-05 0.0002457069 -1.631981e-28)
(-0.0001148608 0.0003547463 -9.374541e-28)
(-0.0001554054 0.0004371588 -1.966981e-27)
(-0.0001958239 0.0004957419 -3.797541e-27)
(-0.000233023 0.0005336655 -2.79703e-27)
(-0.0002664808 0.0005569991 -1.936521e-28)
(-2.610976e-05 8.321653e-05 -2.586255e-31)
(-6.717288e-05 0.0002116882 -1.706646e-29)
(-0.0001057515 0.0003053469 -5.68102e-29)
(-0.0001465874 0.0003820673 6.568732e-29)
(-0.0001889776 0.0004415892 -6.131451e-28)
(-0.0002277561 0.0004836319 -2.050699e-28)
(-0.0002583149 0.000512336 2.034074e-28)
(-2.094955e-05 6.959219e-05 6.080099e-29)
(-5.648678e-05 0.0001778067 2.851462e-29)
(-9.019174e-05 0.000258782 4.157035e-28)
(-0.0001276269 0.0003296771 1.525795e-28)
(-0.0001687035 0.0003901027 6.805265e-28)
(-0.000206898 0.0004360144 9.423044e-28)
(-0.0002344066 0.0004683351 2.745492e-28)
(-1.583437e-05 5.617073e-05 8.118121e-29)
(-4.4077e-05 0.0001461796 4.610945e-29)
(-7.124001e-05 0.0002175597 4.279518e-28)
(-0.0001029783 0.0002835043 -1.466471e-28)
(-0.0001405328 0.0003435436 -3.150851e-28)
(-0.0001767963 0.0003915604 -8.051713e-28)
(-0.0002020059 0.0004261614 -5.559765e-28)
(-1.127376e-05 4.462353e-05 -2.690698e-28)
(-3.057613e-05 0.0001189662 -3.252789e-28)
(-5.050785e-05 0.0001821734 4.531791e-29)
(-7.677476e-05 0.0002437975 -1.353078e-28)
(-0.0001106917 0.0003027525 6.616532e-28)
(-0.0001454257 0.0003514602 1.53312e-27)
(-0.0001698436 0.0003878207 2.647836e-28)
(-7.099224e-06 3.569489e-05 -2.732317e-28)
(-1.777091e-05 9.690853e-05 -2.993835e-28)
(-3.076311e-05 0.0001517323 -7.654511e-29)
(-5.201205e-05 0.0002087065 -1.051124e-29)
(-8.291185e-05 0.0002657448 3.078228e-28)
(-0.0001181518 0.0003149421 6.010622e-28)
(-0.0001441958 0.0003525808 -6.326983e-28)
(-3.17072e-06 2.835164e-05 0)
(-7.410124e-06 7.858538e-05 -1.039554e-28)
(-1.456145e-05 0.0001249955 2.098019e-28)
(-3.130615e-05 0.0001752204 9.734e-29)
(-6.104138e-05 0.0002292857 -2.610539e-28)
(-9.807577e-05 0.0002784769 1.216944e-28)
(-0.0001275047 0.0003181158 6.226573e-28)
(-2.535683e-07 2.146975e-05 0)
(-6.653548e-07 6.169539e-05 -4.777245e-29)
(-4.064125e-06 0.0001001495 1.93287e-28)
(-1.736687e-05 0.0001426771 6.061832e-34)
(-4.529201e-05 0.0001913242 -6.082808e-29)
(-8.37874e-05 0.0002398539 2.539291e-27)
(-0.0001159727 0.0002821916 2.698295e-27)
(1.00107e-06 1.482396e-05 -1.231696e-28)
(2.24403e-06 4.554681e-05 0)
(6.095034e-07 7.650711e-05 0)
(-9.776439e-06 0.0001110569 1.652618e-31)
(-3.460811e-05 0.0001523662 -7.198349e-28)
(-7.150642e-05 0.0001980282 2.19681e-28)
(-0.000105503 0.0002421941 1.969211e-27)
(1.085424e-06 9.549764e-06 -8.15921e-29)
(2.734989e-06 3.156426e-05 -1.501477e-29)
(1.881152e-06 5.509959e-05 -2.177191e-29)
(-6.077389e-06 8.155855e-05 -2.800981e-28)
(-2.607764e-05 0.0001142268 -1.272336e-27)
(-5.851669e-05 0.0001541034 -1.163632e-27)
(-9.203972e-05 0.0001975577 4.567497e-28)
(8.826066e-07 6.260353e-06 0)
(2.498692e-06 2.148499e-05 8.507485e-29)
(2.17906e-06 3.812263e-05 0)
(-3.307392e-06 5.677832e-05 -5.361004e-29)
(-1.792425e-05 8.032273e-05 -9.535459e-29)
(-4.372494e-05 0.000111189 -3.010905e-28)
(-7.35968e-05 0.0001499417 -8.081758e-29)
(7.979841e-07 4.775796e-06 0)
(2.4443e-06 1.567541e-05 -5.438936e-29)
(2.779828e-06 2.708907e-05 6.841895e-29)
(-3.066927e-07 3.921859e-05 0)
(-9.502995e-06 5.404186e-05 -1.277681e-28)
(-2.716389e-05 7.470765e-05 -2.350401e-28)
(-5.024204e-05 0.0001045623 -4.324237e-28)
(7.558026e-07 3.951345e-06 0)
(2.574166e-06 1.265654e-05 -1.259808e-28)
(3.474746e-06 2.111715e-05 -3.188339e-31)
(2.268249e-06 2.903242e-05 -1.507986e-28)
(-2.296139e-06 3.756722e-05 -7.369335e-29)
(-1.195906e-05 4.932474e-05 1.357372e-28)
(-2.631765e-05 6.779604e-05 -1.13101e-27)
(6.434053e-07 3.20753e-06 2.996245e-29)
(2.524493e-06 1.035396e-05 -4.33433e-29)
(3.924959e-06 1.735965e-05 1.309615e-31)
(3.903862e-06 2.361095e-05 -6.438622e-29)
(2.08518e-06 2.919547e-05 0)
(-1.822206e-06 3.52971e-05 0)
(-8.139194e-06 4.486066e-05 -3.270597e-29)
(4.870595e-07 2.609616e-06 2.446066e-29)
(2.260119e-06 8.520561e-06 -3.642886e-29)
(3.976984e-06 1.433661e-05 3.217389e-29)
(4.818292e-06 1.974856e-05 3.080163e-29)
(4.465726e-06 2.44388e-05 0)
(3.206178e-06 2.859656e-05 0)
(1.750862e-06 3.337595e-05 -1.03039e-28)
(3.188441e-07 2.127249e-06 -2.398679e-29)
(1.864273e-06 7.064088e-06 -4.218238e-29)
(3.677222e-06 1.190436e-05 -6.784019e-30)
(5.072655e-06 1.651992e-05 1.98065e-29)
(5.707274e-06 2.074002e-05 4.649338e-29)
(5.800741e-06 2.454821e-05 6.268533e-30)
(6.098159e-06 2.814465e-05 2.619657e-30)
(1.617141e-07 1.726382e-06 -2.352311e-29)
(1.428071e-06 5.861743e-06 -3.148178e-30)
(3.165158e-06 9.904687e-06 6.700845e-30)
(4.814522e-06 1.381415e-05 7.18787e-30)
(6.066661e-06 1.751403e-05 0)
(7.006204e-06 2.097367e-05 -3.331923e-29)
(8.050817e-06 2.430702e-05 1.728675e-29)
(2.941903e-08 1.39031e-06 0)
(1.018497e-06 4.850986e-06 -6.246294e-30)
(2.58476e-06 8.22721e-06 -6.655176e-30)
(4.287437e-06 1.154342e-05 9.551526e-29)
(5.834114e-06 1.472078e-05 5.998181e-29)
(7.199717e-06 1.772815e-05 1.836549e-29)
(8.563218e-06 2.065299e-05 -1.433307e-30)
(-7.191716e-08 1.104348e-06 -2.309939e-30)
(6.741738e-07 4.000828e-06 -3.104091e-30)
(2.0409e-06 6.818014e-06 0)
(3.680261e-06 9.617191e-06 -3.430242e-31)
(5.300533e-06 1.230909e-05 1.654264e-29)
(6.779966e-06 1.488213e-05 1.460329e-29)
(8.214848e-06 1.739586e-05 -1.553689e-29)
(-1.438421e-07 8.641408e-07 1.336932e-29)
(4.019841e-07 3.290778e-06 -2.554964e-29)
(1.577436e-06 5.656961e-06 -6.451714e-31)
(3.078366e-06 8.002656e-06 -6.340978e-29)
(4.632923e-06 1.027473e-05 7.012227e-30)
(6.092881e-06 1.247612e-05 0)
(7.481257e-06 1.464573e-05 1.507932e-29)
(-1.8918e-07 6.65397e-07 1.497177e-29)
(2.028139e-07 2.714771e-06 -1.248688e-29)
(1.211046e-06 4.700091e-06 1.299212e-29)
(2.558272e-06 6.670091e-06 0)
(3.980731e-06 8.596938e-06 -1.243704e-29)
(5.349458e-06 1.049574e-05 0)
(6.643726e-06 1.239905e-05 9.539825e-30)
(-2.126605e-07 5.021557e-07 0)
(6.593295e-08 2.238288e-06 0)
(9.25437e-07 3.909574e-06 -2.512879e-29)
(2.109008e-06 5.575649e-06 0)
(3.393329e-06 7.230257e-06 -2.145773e-29)
(4.646855e-06 8.887683e-06 -9.600429e-30)
(5.833416e-06 1.058507e-05 8.183371e-30)
(-2.233465e-07 3.714407e-07 -9.435524e-30)
(-2.851282e-08 1.846994e-06 0)
(7.008549e-07 3.261146e-06 -7.645759e-30)
(1.740417e-06 4.687007e-06 1.350579e-29)
(2.888203e-06 6.121929e-06 -9.241763e-30)
(4.019339e-06 7.582509e-06 -1.652562e-29)
(5.094627e-06 9.108245e-06 -7.074017e-30)
(-2.214249e-07 2.618455e-07 -6.93899e-30)
(-8.471009e-08 1.52835e-06 -8.423361e-30)
(5.340209e-07 2.734605e-06 0)
(1.443717e-06 3.965811e-06 1.521693e-29)
(2.461019e-06 5.220134e-06 6.618326e-30)
(3.467603e-06 6.513402e-06 -2.105929e-29)
(4.421476e-06 7.881392e-06 -2.097001e-29)
(-2.134581e-07 1.725641e-07 -7.036855e-30)
(-1.196052e-07 1.267638e-06 -8.476523e-30)
(4.095624e-07 2.306395e-06 8.18778e-30)
(1.205584e-06 3.378382e-06 0)
(2.101955e-06 4.481846e-06 0)
(2.985641e-06 5.629027e-06 -6.145843e-30)
(3.809465e-06 6.854041e-06 6.073221e-29)
(-2.00946e-07 9.979088e-08 -5.97613e-30)
(-1.371579e-07 1.054838e-06 -7.388126e-30)
(3.178981e-07 1.956309e-06 6.955361e-30)
(1.015565e-06 2.897168e-06 0)
(1.805457e-06 3.87541e-06 6.460102e-30)
(2.583401e-06 4.900236e-06 1.110675e-33)
(3.309248e-06 6.007644e-06 -6.947131e-30)
(-1.862973e-07 3.984611e-08 0)
(-1.434233e-07 8.792463e-07 -6.244269e-30)
(2.504756e-07 1.667119e-06 6.040241e-30)
(8.637686e-07 2.499326e-06 0)
(1.561846e-06 3.374269e-06 -1.153826e-29)
(2.249888e-06 4.299671e-06 -1.31007e-29)
(2.888858e-06 5.308452e-06 -6.844886e-30)
(-1.70984e-07 -1.032689e-08 4.412658e-30)
(-1.42474e-07 7.321548e-07 -1.506197e-30)
(2.00453e-07 1.424495e-06 3.542651e-30)
(7.413019e-07 2.165464e-06 -3.119795e-30)
(1.360348e-06 2.954379e-06 -3.098152e-30)
(1.973053e-06 3.79875e-06 -3.736759e-30)
(2.541974e-06 4.729301e-06 0)
(-1.559183e-07 -5.310517e-08 7.420309e-30)
(-1.373674e-07 6.06614e-07 0)
(1.626145e-07 1.21707e-06 0)
(6.407996e-07 1.879897e-06 7.189202e-30)
(1.190202e-06 2.595562e-06 1.047823e-29)
(1.737423e-06 3.377841e-06 -3.096555e-30)
(2.248142e-06 4.245056e-06 0)
(-1.415245e-07 -9.04267e-08 3.092892e-30)
(-1.298849e-07 4.971454e-07 -1.500053e-30)
(1.336226e-07 1.036112e-06 -1.521753e-30)
(5.579021e-07 1.630486e-06 -3.153497e-30)
(1.048723e-06 2.281838e-06 -1.339364e-31)
(1.546999e-06 3.00899e-06 0)
(2.008167e-06 3.821815e-06 -2.018536e-30)
(-1.28172e-07 -1.236012e-07 -5.871109e-31)
(-1.215124e-07 3.996932e-07 -5.486879e-30)
(1.105087e-07 8.747485e-07 -4.61473e-30)
(4.87394e-07 1.407801e-06 -5.708101e-30)
(9.257365e-07 2.001427e-06 0)
(1.372169e-06 2.674281e-06 -1.094846e-30)
(1.786667e-06 3.435242e-06 6.541514e-32)
(-1.160299e-07 -1.537578e-07 -1.596578e-30)
(-1.132154e-07 3.111269e-07 -6.057895e-30)
(9.130424e-08 7.279745e-07 -6.590543e-30)
(4.260697e-07 1.204997e-06 -5.388871e-30)
(8.177196e-07 1.745647e-06 -3.115267e-30)
(1.216803e-06 2.368121e-06 -6.241148e-31)
(1.588494e-06 3.080477e-06 4.373536e-30)
(-1.051446e-07 -1.816366e-07 -1.735349e-30)
(-1.053849e-07 2.292107e-07 -4.3449e-30)
(7.470308e-08 5.919867e-07 -2.047599e-30)
(3.710703e-07 1.016787e-06 0)
(7.19298e-07 1.511249e-06 -2.504173e-29)
(1.076152e-06 2.087452e-06 -3.170702e-29)
(1.410299e-06 2.750365e-06 -6.289093e-30)
(-9.540792e-08 -2.078746e-07 -2.027551e-30)
(-9.80242e-08 1.519482e-07 -9.730679e-31)
(6.092725e-08 4.635762e-07 4.517704e-30)
(3.249984e-07 8.388904e-07 3.052223e-30)
(6.406432e-07 1.288269e-06 0)
(9.608488e-07 1.821148e-06 -9.347244e-31)
(1.253577e-06 2.43781e-06 3.115588e-30)
(-8.668782e-08 -2.331023e-07 -1.676506e-30)
(-9.112262e-08 7.754854e-08 -6.630362e-31)
(4.93432e-08 3.398498e-07 3.006375e-30)
(2.843878e-07 6.675153e-07 1.521779e-30)
(5.657859e-07 1.071275e-06 0)
(8.514197e-07 1.561002e-06 2.497212e-30)
(1.112652e-06 2.136986e-06 6.196396e-30)
(-7.881995e-08 -2.578824e-07 5.886491e-31)
(-8.435885e-08 4.330545e-09 -1.366912e-30)
(4.031553e-08 2.182068e-07 1.500797e-30)
(2.502035e-07 4.991604e-07 1.51801e-30)
(5.012714e-07 8.579952e-07 0)
(7.560254e-07 1.305588e-06 0)
(9.888926e-07 1.842896e-06 0)
(-7.152073e-08 -2.827975e-07 0)
(-7.712277e-08 -6.938932e-08 -7.47063e-31)
(3.453252e-08 9.578343e-08 0)
(2.231348e-07 3.298857e-07 -2.43838e-30)
(4.477688e-07 6.44145e-07 -3.102716e-30)
(6.752579e-07 1.050154e-06 -3.073868e-30)
(8.826552e-07 1.549978e-06 -2.982917e-30)
(-6.449348e-08 -3.08468e-07 -4.359022e-31)
(-6.875494e-08 -1.455459e-07 0)
(3.22792e-08 -3.065292e-08 3.001144e-30)
(2.015091e-07 1.560508e-07 -2.104449e-29)
(4.041505e-07 4.259326e-07 -2.475389e-29)
(6.095458e-07 7.890843e-07 0)
(7.945643e-07 1.252127e-06 -1.196728e-31)
(-5.73211e-08 -3.357551e-07 -2.208483e-31)
(-5.765961e-08 -2.266582e-07 0)
(3.773266e-08 -1.651587e-07 1.501082e-30)
(1.965079e-07 -2.92637e-08 1.530486e-30)
(3.819051e-07 1.941935e-07 1.600491e-31)
(5.629327e-07 5.150797e-07 -1.049709e-31)
(7.262219e-07 9.423244e-07 2.220869e-31)
(-4.945483e-08 -3.657163e-07 0)
(-4.262263e-08 -3.159707e-07 1.340132e-30)
(5.096601e-08 -3.129707e-07 1.499723e-30)
(2.00135e-07 -2.324204e-07 -5.901856e-31)
(3.70569e-07 -5.853083e-08 2.432532e-31)
(5.340627e-07 2.20194e-07 -2.906908e-31)
(6.782744e-07 6.126617e-07 3.951833e-32)
(-4.00915e-08 -3.99916e-07 0)
(-2.108186e-08 -4.179883e-07 5.634906e-32)
(7.614648e-08 -4.811097e-07 -5.83064e-32)
(2.206024e-07 -4.620929e-07 7.41565e-31)
(3.794588e-07 -3.415856e-07 1.851266e-30)
(5.270088e-07 -1.057888e-07 3.026439e-30)
(6.526672e-07 2.535467e-07 -5.011075e-31)
(-2.799082e-08 -4.403722e-07 0)
(1.067061e-08 -5.390759e-07 0)
(1.186589e-07 -6.798343e-07 -2.347374e-31)
(2.637126e-07 -7.308962e-07 8.501966e-31)
(4.136592e-07 -6.682629e-07 4.063611e-32)
(5.455234e-07 -4.756956e-07 0)
(6.515226e-07 -1.464411e-07 0)
(-1.112217e-08 -4.90523e-07 2.241384e-31)
(5.832834e-08 -6.891719e-07 -2.656799e-31)
(1.865924e-07 -9.241616e-07 -1.65072e-30)
(3.376924e-07 -1.056727e-06 -5.161994e-31)
(4.797767e-07 -1.056726e-06 -3.913275e-32)
(5.939191e-07 -9.059715e-07 3.014192e-30)
(6.767271e-07 -6.009507e-07 2.561312e-35)
(1.381386e-08 -5.558579e-07 3.241105e-32)
(1.31799e-07 -8.839566e-07 -4.011504e-31)