/*--------------------------------*- C++ -*----------------------------------*\
| =========                 |                                                 |
| \\      /  F ield         | OpenFOAM: The Open Source CFD Toolbox           |
|  \\    /   O peration     | Version:  2206                                  |
|   \\  /    A nd           | Website:  www.openfoam.com                      |
|    \\/     M anipulation  |                                                 |
\*---------------------------------------------------------------------------*/
FoamFile
{
    version     2.0;
    format      ascii;
    arch        "LSB;label=32;scalar=64";
    class       volVectorField;
    location    "1.8";
    object      U.b;
}
// * * * * * * * * * * * * * * * * * * * * * * * * * * * * * * * * * * * * * //

dimensions      [0 1 -1 0 0 0 0];

internalField   nonuniform List<vector> 
13078
(
(-5.984497e-06 5.055368e-06 -3.071601e-27)
(-5.902002e-06 4.038194e-05 4.988929e-30)
(-5.036359e-06 1.906002e-05 2.223005e-27)
(-5.145337e-06 8.523658e-06 0)
(-5.245187e-06 1.578087e-06 3.57601e-28)
(-5.351456e-06 -2.492719e-06 1.874361e-28)
(-5.457338e-06 -5.723114e-06 5.18688e-29)
(2.156703e-05 3.495903e-06 0)
(3.203384e-06 2.794888e-05 -1.594081e-29)
(-3.290849e-07 1.773479e-05 0)
(-2.971806e-06 7.798481e-06 0)
(-3.839653e-06 1.703971e-06 1.743082e-30)
(-4.333467e-06 -2.407791e-06 1.281497e-30)
(-4.667346e-06 -5.675878e-06 3.043824e-30)
(4.042689e-05 5.56246e-06 2.571795e-27)
(1.638105e-05 1.42018e-05 -1.344537e-27)
(4.573605e-06 1.081493e-05 -6.229275e-28)
(4.953563e-08 5.832635e-06 -9.082975e-28)
(-1.942188e-06 1.330277e-06 -2.925509e-28)
(-3.020768e-06 -2.451113e-06 0)
(-3.693272e-06 -5.643065e-06 2.004239e-34)
(2.634622e-05 4.001082e-06 1.457688e-27)
(1.479576e-05 8.390301e-06 -1.993988e-27)
(7.110504e-06 7.166546e-06 -1.224258e-27)
(2.551098e-06 4.20948e-06 -3.322843e-28)
(6.451986e-08 7.092725e-07 3.73554e-30)
(-1.476034e-06 -2.65931e-06 0)
(-2.502897e-06 -5.712761e-06 -9.314857e-31)
(1.966723e-05 2.725765e-06 3.417775e-30)
(1.38998e-05 5.616877e-06 -7.977618e-28)
(8.673883e-06 4.973414e-06 -1.155239e-27)
(4.776566e-06 2.784914e-06 -7.207308e-28)
(2.036458e-06 -3.192878e-08 3.963059e-28)
(2.286408e-07 -3.063585e-06 -4.588549e-33)
(-1.120241e-06 -5.963477e-06 1.983487e-29)
(1.745239e-05 1.789257e-06 0)
(1.394246e-05 3.635624e-06 -9.735534e-30)
(1.01008e-05 3.150053e-06 1.114045e-29)
(6.751585e-06 1.406193e-06 -4.287375e-28)
(4.102738e-06 -1.022497e-06 -1.225063e-29)
(2.004088e-06 -3.688128e-06 2.659608e-29)
(4.159767e-07 -6.452175e-06 -1.144201e-28)
(1.671334e-05 1.095582e-06 0)
(1.442424e-05 2.082145e-06 -7.372721e-28)
(1.1521e-05 1.507613e-06 -5.08349e-28)
(8.655435e-06 3.944469e-09 8.76748e-29)
(6.097674e-06 -2.17097e-06 -3.653057e-28)
(3.927123e-06 -4.644607e-06 3.211029e-30)
(2.03301e-06 -7.188878e-06 0)
(1.683565e-05 5.765322e-07 1.617856e-27)
(1.524246e-05 8.316757e-07 -7.534326e-28)
(1.297945e-05 4.251753e-08 -6.606944e-28)
(1.050192e-05 -1.451563e-06 0)
(8.066536e-06 -3.485784e-06 -8.696079e-28)
(5.84197e-06 -5.817454e-06 9.615358e-30)
(3.809944e-06 -8.27596e-06 1.799325e-29)
(1.756432e-05 1.705006e-07 1.704561e-32)
(1.638054e-05 -2.03225e-07 1.58617e-27)
(1.454497e-05 -1.302288e-06 7.167469e-28)
(1.235493e-05 -2.896542e-06 3.468045e-30)
(1.003616e-05 -4.916599e-06 -2.040502e-27)
(7.782814e-06 -7.193878e-06 1.610549e-29)
(5.614253e-06 -9.596577e-06 0)
(1.878595e-05 -1.614901e-07 -1.779136e-27)
(1.784574e-05 -1.095075e-06 1.705564e-27)
(1.628101e-05 -2.552604e-06 7.865488e-28)
(1.429007e-05 -4.340183e-06 -1.39228e-27)
(1.205353e-05 -6.444252e-06 -4.427452e-31)
(9.770428e-06 -8.745651e-06 0)
(7.478557e-06 -1.114889e-05 0)
(2.04486e-05 -4.510638e-07 0)
(1.964711e-05 -1.902315e-06 0)
(1.824383e-05 -3.746357e-06 1.739877e-27)
(1.637167e-05 -5.796077e-06 -1.566772e-27)
(1.417155e-05 -8.063865e-06 6.368229e-31)
(1.183956e-05 -1.046081e-05 0)
(9.419824e-06 -1.291982e-05 0)
(2.25307e-05 -7.193592e-07 0)
(2.180157e-05 -2.668794e-06 -2.054666e-27)
(2.048006e-05 -4.921841e-06 1.937261e-27)
(1.865706e-05 -7.286757e-06 1.742864e-27)
(1.644402e-05 -9.784086e-06 -1.59705e-27)
(1.403209e-05 -1.234057e-05 0)
(1.146591e-05 -1.490949e-05 1.192039e-27)
(2.503317e-05 -9.807877e-07 0)
(2.433197e-05 -3.427846e-06 -2.295552e-27)
(2.303227e-05 -6.114228e-06 -1.796456e-29)
(2.119804e-05 -8.839317e-06 1.988702e-27)
(1.892454e-05 -1.162328e-05 -1.788125e-27)
(1.639271e-05 -1.439761e-05 1.554197e-27)
(1.365143e-05 -1.712809e-05 1.419496e-30)
(2.797356e-05 -1.246108e-06 -2.626373e-27)
(2.7268e-05 -4.205924e-06 0)
(2.594256e-05 -7.355623e-06 -2.216238e-29)
(2.40382e-05 -1.048228e-05 -3.174273e-29)
(2.166926e-05 -1.360215e-05 -4.070212e-27)
(1.896603e-05 -1.665322e-05 1.787036e-27)
(1.601493e-05 -1.959418e-05 -1.511157e-27)
(3.138275e-05 -1.52385e-06 -2.945354e-27)
(3.064845e-05 -5.026329e-06 0)
(2.926198e-05 -8.682897e-06 -5.299221e-29)
(2.723567e-05 -1.227711e-05 3.046815e-27)
(2.477478e-05 -1.571653e-05 -1.564366e-27)
(2.180702e-05 -1.912577e-05 0)
(1.859916e-05 -2.233189e-05 1.743567e-27)
(3.530256e-05 -1.82056e-06 0)
(3.451739e-05 -5.904314e-06 -3.226185e-27)
(3.30372e-05 -1.009889e-05 0)
(3.090034e-05 -1.414932e-05 2.972166e-27)
(2.818887e-05 -1.809429e-05 1.1265e-28)
(2.495447e-05 -2.186731e-05 1.374929e-28)
(2.144669e-05 -2.537878e-05 2.166399e-27)
(3.978653e-05 -2.143949e-06 0)
(3.892955e-05 -6.864629e-06 -7.273843e-27)
(3.73176e-05 -1.166086e-05 -3.62852e-29)
(3.499399e-05 -1.625919e-05 -5.074293e-29)
(3.201652e-05 -2.070496e-05 0)
(2.846278e-05 -2.490678e-05 0)
(2.460072e-05 -2.877358e-05 0)
(4.490087e-05 -2.500995e-06 -4.209427e-27)
(4.395155e-05 -7.925543e-06 -4.117663e-27)
(4.217324e-05 -1.338852e-05 -8.372265e-29)
(3.960904e-05 -1.860102e-05 -5.825973e-29)
(3.631414e-05 -2.360119e-05 0)
(3.238698e-05 -2.828977e-05 -3.185475e-27)
(2.810585e-05 -3.256304e-05 -4.152039e-28)
(5.07248e-05 -2.898902e-06 -4.756954e-27)
(4.966093e-05 -9.108659e-06 -4.650472e-27)
(4.76788e-05 -1.531621e-05 -1.439132e-28)
(4.482072e-05 -2.121626e-05 -1.331726e-28)
(4.113323e-05 -2.683189e-05 0)
(3.679841e-05 -3.205888e-05 -3.413967e-27)
(3.200763e-05 -3.680302e-05 -2.346259e-28)
(5.735244e-05 -3.34618e-06 -5.384162e-27)
(5.614908e-05 -1.043836e-05 -1.048451e-26)
(5.39237e-05 -1.748463e-05 -5.018577e-27)
(5.072484e-05 -2.417499e-05 0)
(4.656954e-05 -3.054307e-05 1.47207e-27)
(4.185716e-05 -3.621354e-05 2.231942e-27)
(3.63692e-05 -4.154538e-05 5.284881e-28)
(6.489434e-05 -3.851521e-06 -6.101021e-27)
(6.352171e-05 -1.193948e-05 -1.184228e-26)
(6.100408e-05 -1.992446e-05 -1.129156e-26)
(5.740583e-05 -2.746306e-05 -5.16103e-27)
(5.283452e-05 -3.451508e-05 2.174578e-28)
(4.741259e-05 -4.102544e-05 -4.298e-27)
(4.122847e-05 -4.689857e-05 3.504215e-27)
(7.348128e-05 -4.426715e-06 0)
(7.190403e-05 -1.364706e-05 -6.671719e-27)
(6.903697e-05 -2.270234e-05 -6.353386e-27)
(6.495134e-05 -3.122866e-05 -1.206586e-26)
(5.979232e-05 -3.915166e-05 0)
(5.363559e-05 -4.643489e-05 -4.861514e-27)
(4.665738e-05 -5.293867e-05 7.165901e-30)
(8.326691e-05 -5.083672e-06 7.824858e-27)
(8.144401e-05 -1.559641e-05 0)
(7.816409e-05 -2.586972e-05 0)
(7.350418e-05 -3.551498e-05 2.172296e-28)
(6.763024e-05 -4.442837e-05 6.542659e-27)
(6.059878e-05 -5.255377e-05 0)
(5.275295e-05 -5.974583e-05 -4.856054e-27)
(9.443052e-05 -5.836293e-06 1.77568e-26)
(9.231313e-05 -1.782764e-05 0)
(8.854677e-05 -2.949135e-05 0)
(8.321649e-05 -4.04167e-05 7.472007e-27)
(7.652469e-05 -5.050094e-05 1.385892e-26)
(6.849285e-05 -5.973258e-05 -6.315274e-27)
(5.97726e-05 -6.736733e-05 0)
(0.0001071794 -6.699936e-06 1.008262e-26)
(0.0001047088 -2.038522e-05 6.388356e-29)
(0.0001003682 -3.363497e-05 9.436705e-27)
(9.424783e-05 -4.600226e-05 2.882471e-28)
(8.660581e-05 -5.732226e-05 3.692149e-28)
(7.762568e-05 -6.745888e-05 -7.161836e-27)
(6.744676e-05 -7.629005e-05 0)
(0.0001217517 -7.691843e-06 0)
(0.0001188593 -2.332101e-05 -1.110288e-26)
(0.0001138427 -3.838981e-05 1.059201e-26)
(0.0001067941 -5.242077e-05 0)
(9.800941e-05 -6.521983e-05 -8.260378e-27)
(8.773481e-05 -7.659891e-05 1.929381e-27)
(7.600625e-05 -8.646118e-05 1.093221e-27)
(0.0001384188 -8.829744e-06 -1.303149e-26)
(0.0001350285 -2.668922e-05 -1.262445e-26)
(0.0001292197 -4.384334e-05 1.20162e-26)
(0.0001210932 -5.977825e-05 0)
(0.0001109798 -7.426415e-05 -9.323776e-28)
(9.915347e-05 -8.706765e-05 -1.272111e-30)
(8.561469e-05 -9.806949e-05 1.239634e-27)
(0.0001574809 -1.01327e-05 -1.483857e-26)
(0.0001535255 -3.053772e-05 -1.435168e-26)
(0.0001467831 -5.009005e-05 1.366516e-26)
(0.0001374101 -6.821121e-05 0)
(0.0001257592 -8.464633e-05 0)
(0.0001121655 -9.918013e-05 -1.034687e-26)
(9.666691e-05 -0.0001118342 -1.984268e-27)
(0.0001792774 -1.160111e-05 -1.693622e-26)
(0.0001746907 -3.492454e-05 -1.645956e-26)
(0.000166855 -5.72332e-05 0)
(0.0001560505 -7.78618e-05 1.349418e-26)
(0.0001426033 -9.651574e-05 -1.21567e-27)
(0.0001268909 -0.0001128076 -2.20046e-26)
(0.0001091386 -0.0001262896 4.77851e-27)
(0.0002041314 -1.33373e-05 -1.926234e-26)
(0.0001990281 -3.975253e-05 0)
(0.0001898446 -6.532469e-05 -1.808372e-26)
(0.0001774012 -8.890659e-05 1.591992e-26)
(0.0001619094 -0.000110248 -1.497421e-26)
(0.00014369 -0.0001289734 -2.651719e-26)
(0.0001229066 -0.000144617 -1.127738e-26)
(0.00023276 -1.509211e-05 0)
(0.0002265537 -4.540715e-05 0)
(0.0002161692 -7.447231e-05 -4.029729e-26)
(0.0002019079 -0.0001014592 0)
(0.0001841809 -0.0001259607 -3.41037e-26)
(0.0001632604 -0.0001476352 -1.507281e-26)
(0.0001392715 -0.0001660586 1.27688e-26)
(0.0002652757 -1.725585e-05 -2.520422e-26)
(0.0002578088 -5.194175e-05 2.390957e-26)
(0.000246501 -8.431091e-05 2.268685e-26)
(0.0002301813 -0.0001153971 0)
(0.0002098983 -0.0001437193 -1.945663e-26)
(0.0001860845 -0.0001688621 0)
(0.0001585366 -0.0001902964 9.715209e-27)
(0.000302206 -1.955497e-05 -2.862856e-26)
(0.0002939611 -5.856571e-05 2.769193e-26)
(0.0002804845 -9.623041e-05 7.839648e-26)
(0.000263106 -0.000130433 4.982681e-26)
(0.0002396649 -0.0001635263 -2.007347e-26)
(0.0002127711 -0.0001930075 2.452426e-27)
(0.0001812753 -0.0002186541 -2.780777e-27)
(0.0003439066 -2.212244e-05 6.876581e-29)
(0.000334464 -6.601174e-05 2.100204e-28)
(0.0003198175 -0.0001079036 3.141033e-26)
(0.0002996997 -0.0001477488 5.316376e-26)
(0.0002740381 -0.0001853717 -3.007944e-26)
(0.0002440155 -0.0002200403 5.610847e-27)
(0.0002086084 -0.0002510736 1.283435e-26)
(0.0003908975 -2.496663e-05 -7.777683e-29)
(0.0003799234 -7.439862e-05 -2.375016e-28)
(0.0003636696 -0.0001216381 3.271787e-26)
(0.0003409697 -0.0001673367 1.402657e-26)
(0.0003141248 -0.000208173 -2.536342e-26)
(0.0002807543 -0.0002493247 1.921877e-26)
(0.0002414769 -0.0002872006 0)
(0.0004436518 -2.804395e-05 0)
(0.0004308065 -8.338295e-05 0)
(0.0004127179 -0.0001359737 3.898128e-26)
(0.000388795 -0.0001863907 4.116198e-26)
(0.0003585292 -0.0002357035 6.165115e-26)
(0.0003243449 -0.0002799399 5.67136e-26)
(0.0002805663 -0.00032661 0)
(0.0005025984 -3.138454e-05 -1.966338e-28)
(0.0004873951 -9.312416e-05 5.852928e-28)
(0.0004669114 -0.000151611 1.953568e-27)
(0.000440941 -0.0002073689 0)
(0.0004094037 -0.0002611042 7.597574e-26)
(0.0003716544 -0.0003142511 -8.075215e-27)
(0.0003246869 -0.0003687187 -1.906661e-26)
(0.0005680444 -3.494782e-05 -5.388759e-26)
(0.0005499931 -0.0001035619 6.715929e-28)
(0.0005267703 -0.0001685709 -4.98567e-26)
(0.0004983785 -0.0002307835 0)
(0.0004646237 -0.0002913941 5.0617e-26)
(0.0004224336 -0.0003536863 -2.112202e-26)
(0.0003714189 -0.0004134759 -1.04331e-25)
(0.0006399432 -3.866106e-05 -6.08317e-26)
(0.0006190891 -0.0001144686 -5.816143e-26)
(0.000592971 -0.0001868319 -5.628324e-26)
(0.0005615224 -0.0002559623 -6.686867e-27)
(0.0005237978 -0.0003231593 -1.70241e-26)
(0.0004761941 -0.0003907936 1.161445e-26)
(0.0004134826 -0.000466391 -5.063367e-26)
(0.0007181439 -4.279721e-05 0)
(0.0006951934 -0.0001251518 6.422264e-26)
(0.0006658381 -0.0002056632 6.318808e-26)
(0.0006297501 -0.0002829755 3.796402e-27)
(0.0005861796 -0.0003593651 -6.394265e-26)
(0.0005311101 -0.0004395697 -1.215244e-26)
(0.0004556082 -0.0005340145 0)
(0.0008027567 -4.597192e-05 7.70201e-26)
(0.0007755591 -0.0001370819 1.414963e-25)
(0.0007436752 -0.0002220325 5.958456e-26)
(0.0007031074 -0.0003093413 1.327126e-25)
(0.0006538017 -0.0003983891 -7.193939e-26)
(0.0005917576 -0.0004941179 3.831365e-26)
(0.0005045358 -0.0006037298 -3.535973e-26)
(0.0008872824 -4.803005e-05 8.509612e-26)
(0.0008585341 -0.0001437445 -1.025925e-27)
(0.0008221612 -0.0002397507 0)
(0.0007825162 -0.0003331471 3.531692e-27)
(0.0007309554 -0.0004406439 1.350443e-25)
(0.0006620735 -0.0005617255 1.00585e-25)
(0.0005565563 -0.0007084236 2.118326e-26)
(0.0009644954 -4.840871e-05 -9.311876e-26)
(0.0009366068 -0.0001479142 2.208643e-27)
(0.0009034975 -0.0002498676 3.748776e-27)
(0.0008650667 -0.0003623425 -2.006029e-25)
(0.0008184837 -0.0004841046 1.255203e-25)
(0.0007408886 -0.0006499247 1.037245e-25)
(0.0006054874 -0.0008600525 5.455596e-27)
(0.001027626 -4.71419e-05 -9.938886e-26)
(0.001006436 -0.0001492896 0)
(0.0009800982 -0.0002567493 7.935281e-27)
(0.0009523318 -0.0003811504 1.167482e-26)
(0.0009039739 -0.0005491123 3.930042e-26)
(0.0008192229 -0.0007642753 1.750654e-25)
(0.0006633425 -0.001065839 -4.860361e-26)
(0.001073819 -4.535728e-05 0)
(0.001063515 -0.0001464428 4.89207e-27)
(0.001045436 -0.0002573475 8.343558e-27)
(0.001027055 -0.0004020676 1.25154e-26)
(0.0009794153 -0.0006158148 -6.946736e-26)
(0.0008858994 -0.0009154402 1.609781e-28)
(0.0007323173 -0.001268087 7.869447e-26)
(0.001103757 -4.259278e-05 0)
(0.001102408 -0.0001425764 9.637716e-26)
(0.001090411 -0.0002576687 -1.672802e-26)
(0.001070745 -0.0004303206 -1.907566e-25)
(0.001023942 -0.0006950412 8.843248e-26)
(0.0009401557 -0.001044044 1.311803e-26)
(0.0008046975 -0.001494234 6.375296e-26)
(0.001114184 -3.991538e-05 -1.064771e-25)
(0.001120475 -0.0001381013 -1.259288e-27)
(0.00110708 -0.0002715269 -4.788003e-27)
(0.001072463 -0.0004826412 -1.825561e-25)
(0.001022864 -0.0007742176 2.850801e-25)
(0.0009501964 -0.001154541 1.384993e-25)
(0.0008526374 -0.001608087 1.231487e-28)
(0.001101218 -3.87207e-05 -1.046873e-25)
(0.001110643 -0.0001471137 -1.048157e-25)
(0.001086883 -0.0003103973 -1.031377e-25)
(0.001037923 -0.0005512096 -8.780683e-26)
(0.0009748337 -0.0008759636 1.314768e-25)
(0.0009012066 -0.001258686 3.325592e-28)
(0.0008271443 -0.001713024 -1.989459e-25)
(0.001062779 -4.354334e-05 1.007192e-25)
(0.001068719 -0.0001759018 -3.744136e-27)
(0.001030071 -0.0003737426 -1.974595e-25)
(0.000966575 -0.0006430718 -9.78245e-26)
(0.0008882691 -0.00097612 -8.671446e-29)
(0.0008049881 -0.00135806 8.254542e-26)
(0.0007223353 -0.001800469 1.063528e-25)
(0.0009976509 -5.815905e-05 9.35735e-26)
(0.0009956765 -0.0002272005 -3.068048e-29)
(0.0009421896 -0.000460358 -1.350481e-25)
(0.0008634294 -0.000755137 5.166639e-26)
(0.0007713643 -0.001100507 -7.975395e-27)
(0.0006756225 -0.001481716 -9.156942e-26)
(0.000578104 -0.001892043 -1.133904e-25)
(0.0009067854 -8.38587e-05 4.2231e-26)
(0.0008979106 -0.000301039 -3.870485e-26)
(0.000833426 -0.0005636506 -6.204665e-26)
(0.000744681 -0.0008821534 -7.527299e-26)
(0.0006392585 -0.001239256 -1.483988e-25)
(0.0005267656 -0.001619836 -1.009953e-25)
(0.0004124809 -0.002013389 1.090952e-28)
(0.0007926855 -0.0001132425 3.637324e-26)
(0.0007828115 -0.0003829367 -6.515631e-26)
(0.0007231393 -0.000686776 -1.126182e-28)
(0.0006283274 -0.001022473 -3.149112e-26)
(0.0005186768 -0.001396783 1.012942e-26)
(0.0003932408 -0.001788117 -4.448247e-25)
(0.0002460831 -0.002184591 -5.274667e-25)
(0.0006592484 -0.0001417678 2.908508e-26)
(0.0006550998 -0.0004557466 -5.518357e-26)
(0.0006036894 -0.0007843562 -6.52213e-27)
(0.0005233128 -0.001143198 3.440079e-26)
(0.0004273441 -0.001533752 1.071076e-25)
(0.0003141178 -0.001957009 1.198194e-25)
(0.0001777434 -0.002417447 1.041078e-28)
(0.0005134497 -0.0001652206 2.381076e-26)
(0.0005169585 -0.0005125742 -2.559747e-27)
(0.0004846493 -0.0008580078 -2.427952e-26)
(0.0004340555 -0.001228365 3.316548e-26)
(0.0003746204 -0.001634309 2.68853e-26)
(0.0003069366 -0.00208817 -1.033455e-31)
(0.00022425 -0.002585043 -5.015643e-27)
(0.0003604148 -0.0001812397 -9.557837e-28)
(0.0003703453 -0.0005465095 1.14311e-26)
(0.0003611918 -0.0008975345 -6.017299e-30)
(0.0003453877 -0.001268087 -5.211419e-27)
(0.0003314848 -0.001671679 -4.309287e-27)
(0.0003245579 -0.002122628 -6.653902e-26)
(0.0003293768 -0.002604008 -7.667627e-26)
(0.0001955905 -0.0001886545 9.8325e-28)
(0.000208462 -0.0005549512 -2.849222e-27)
(0.0002208044 -0.0008994382 8.501435e-27)
(0.0002380521 -0.001257791 1.821889e-26)
(0.0002655358 -0.00164176 -4.420346e-27)
(0.0003092489 -0.002061606 -4.783439e-30)
(0.0003745886 -0.002493379 -1.585446e-25)
(1.504951e-05 -0.0001821869 9.615441e-28)
(2.732087e-05 -0.0005348317 -4.299636e-27)
(5.577544e-05 -0.0008646116 -5.509125e-27)
(9.811269e-05 -0.001203903 4.343467e-26)
(0.0001535883 -0.001561429 5.32163e-26)
(0.0002247966 -0.001946777 -3.618393e-29)
(0.0003130083 -0.00233887 -8.41443e-26)
(-0.0001761759 -0.0001638447 -2.31037e-30)
(-0.000166385 -0.0004929728 7.13091e-27)
(-0.0001273849 -0.0008048682 1.407942e-26)
(-6.926588e-05 -0.001126401 2.061578e-26)
(6.96758e-07 -0.001463823 4.204861e-26)
(8.007092e-05 -0.001825104 -7.892833e-30)
(0.0001689469 -0.002194095 -7.876735e-26)
(-0.0003733017 -0.0001413293 1.641614e-26)
(-0.0003661023 -0.0004395224 8.881493e-27)
(-0.0003209362 -0.0007319959 -2.516115e-26)
(-0.0002542264 -0.001039372 -3.577808e-27)
(-0.0001789303 -0.001366352 2.37226e-29)
(-0.0001009502 -0.001716692 -4.417084e-30)
(-2.215232e-05 -0.00207697 1.012164e-28)
(-0.0005713087 -0.0001165545 -6.835972e-28)
(-0.0005660953 -0.000378983 -1.670431e-26)
(-0.0005194582 -0.000651992 -9.593936e-27)
(-0.0004492611 -0.0009495688 -2.951472e-26)
(-0.0003750573 -0.001273084 -5.049445e-26)
(-0.0003034948 -0.0016202 -5.15957e-30)
(-0.000245539 -0.00199583 9.212177e-26)
(-0.0007565873 -9.123543e-05 -6.97207e-26)
(-0.0007536416 -0.0003163826 -7.727216e-26)
(-0.0007124063 -0.0005703145 -1.384041e-25)
(-0.0006481236 -0.000860911 -1.253642e-25)
(-0.0005827802 -0.001193508 -3.010468e-28)
(-0.0005228491 -0.001554011 -1.329636e-26)
(-0.0004832644 -0.001947036 4.670117e-26)
(-0.000915688 -6.804975e-05 -4.627817e-26)
(-0.0009179034 -0.0002551972 -5.13064e-26)
(-0.0008787793 -0.0004869025 -3.259158e-30)
(-0.0008274978 -0.0007768616 2.816989e-26)
(-0.0007709229 -0.001116116 -3.770973e-26)
(-0.0007208121 -0.001496789 -2.249072e-25)
(-0.0006853921 -0.001918145 -1.175885e-25)
(-0.001041175 -4.980691e-05 9.698629e-26)
(-0.001050242 -0.0002032572 -2.337231e-27)
(-0.001018778 -0.0004201334 3.787816e-29)
(-0.0009730827 -0.0007032927 1.191085e-29)
(-0.0009214822 -0.001047087 5.433818e-29)
(-0.0008702425 -0.001444808 -9.068845e-26)
(-0.0008166095 -0.001900296 -1.144759e-25)
(-0.001129936 -4.077001e-05 -6.087819e-28)
(-0.001144408 -0.0001689428 -1.0559e-25)
(-0.001121462 -0.000364696 -8.252464e-26)
(-0.001081568 -0.0006361589 4.447683e-26)
(-0.001029603 -0.0009773854 3.192828e-26)
(-0.0009674507 -0.001380358 -8.509998e-26)
(-0.0008890864 -0.001861879 -1.102944e-25)
(-0.001182163 -3.989307e-05 -2.243526e-25)
(-0.001197489 -0.0001515832 -1.054923e-25)
(-0.001182504 -0.0003224788 -9.885294e-26)
(-0.001145525 -0.0005748023 -3.907181e-26)
(-0.001091989 -0.0009124949 -2.09908e-25)
(-0.001016713 -0.001307044 -3.110862e-25)
(-0.0009182729 -0.001768561 -4.090163e-25)
(-0.001199529 -4.335175e-05 -1.149312e-25)
(-0.001210329 -0.0001484732 -1.173336e-25)
(-0.001200818 -0.0002941119 -1.581837e-26)
(-0.001168398 -0.0005198811 1.763609e-25)
(-0.001115804 -0.0008199143 -1.647729e-25)
(-0.001026137 -0.001202643 -7.482519e-26)
(-0.0008915898 -0.00164284 -5.286691e-29)
(-0.0011863 -4.682376e-05 0)
(-0.001189268 -0.0001541796 -1.119612e-25)
(-0.001179498 -0.0002817519 2.12318e-29)
(-0.001156785 -0.0004666343 1.977013e-25)
(-0.001100617 -0.0007381629 -4.625151e-26)
(-0.0009977863 -0.001077618 -7.573256e-26)
(-0.0008325921 -0.001488125 4.263116e-25)
(-0.001148127 -4.9353e-05 0)
(-0.001144256 -0.0001558501 -5.012639e-27)
(-0.001129275 -0.0002776765 -8.910037e-27)
(-0.001107414 -0.0004334677 9.969311e-26)
(-0.001051174 -0.0006510777 3.987079e-26)
(-0.0009457496 -0.0009385943 5.660431e-26)
(-0.0007719213 -0.001263227 -9.682339e-26)
(-0.001090371 -5.00091e-05 -1.04401e-25)
(-0.001079522 -0.0001562848 0)
(-0.001059439 -0.0002726808 0)
(-0.001031345 -0.0004064451 9.36226e-26)
(-0.0009801645 -0.0005786275 -1.616071e-25)
(-0.0008872709 -0.0007918103 1.834419e-29)
(-0.0007258289 -0.001068943 -9.443091e-26)
(-0.00101637 -4.963411e-05 -9.723108e-26)
(-0.001001891 -0.0001523897 -2.139433e-27)
(-0.0009792676 -0.0002618882 -3.75262e-27)
(-0.0009458726 -0.0003829874 -4.11807e-26)
(-0.000899363 -0.0005144172 -2.080188e-25)
(-0.0008216059 -0.0006830296 -6.637339e-26)
(-0.0006868363 -0.0008865103 9.18707e-26)
(-0.0009328131 -4.796481e-05 0)
(-0.0009172928 -0.0001457757 8.689885e-26)
(-0.0008939868 -0.0002481794 0)
(-0.0008623494 -0.0003519885 -9.538082e-27)
(-0.0008159162 -0.000469833 -1.300726e-26)
(-0.0007498485 -0.0006023564 -6.184914e-26)
(-0.0006473619 -0.0007524353 9.149433e-26)
(-0.0008465936 -4.53565e-05 0)
(-0.0008305009 -0.0001378057 -7.791153e-26)
(-0.0008096333 -0.0002290532 7.556212e-26)
(-0.0007787812 -0.0003254355 0)
(-0.0007363684 -0.0004269806 -2.229475e-26)
(-0.0006790347 -0.0005349743 4.847827e-29)
(-0.0005953903 -0.0006585698 -2.554586e-28)
(-0.0007625615 -4.263415e-05 0)
(-0.0007477874 -0.0001269464 -2.114673e-25)
(-0.0007266648 -0.0002124829 -1.36166e-28)
(-0.0006977786 -0.0002988002 -1.428924e-25)
(-0.0006605074 -0.0003855067 -1.974917e-26)
(-0.0006096071 -0.0004801092 5.296234e-26)
(-0.0005360113 -0.000588453 -1.176469e-25)
(-0.0006839331 -3.915898e-05 6.513074e-26)
(-0.0006697135 -0.0001175081 -6.470171e-26)
(-0.0006491887 -0.0001949639 3.700027e-29)
(-0.0006220283 -0.0002718846 -1.106048e-25)
(-0.0005869646 -0.0003491956 0)
(-0.0005409761 -0.000428792 0)
(-0.0004779375 -0.0005156245 -4.8011e-26)
(-0.0006107103 -3.583083e-05 5.787499e-26)
(-0.0005975752 -0.0001076048 -5.712526e-26)
(-0.0005780152 -0.00017819 5.409249e-26)
(-0.0005519008 -0.0002468394 5.111157e-26)
(-0.000517551 -0.00031648 0)
(-0.0004732572 -0.0003879247 0)
(-0.0004187361 -0.0004553007 -5.399193e-26)
(-0.0005432658 -3.25182e-05 -5.167197e-26)
(-0.0005313003 -9.771365e-05 -5.252632e-26)
(-0.0005132544 -0.0001608143 -2.016003e-27)
(-0.0004877069 -0.0002231394 4.238617e-26)
(-0.0004538851 -0.0002847699 2.05076e-26)
(-0.000412287 -0.000342817 -4.704536e-26)
(-0.0003593485 -0.0004025554 2.102817e-26)
(-0.0004819331 -2.921657e-05 -4.597561e-26)
(-0.0004713278 -8.769158e-05 -5.57714e-28)
(-0.000454357 -0.0001446386 1.823419e-27)
(-0.0004301339 -0.0001999735 2.535643e-27)
(-0.0003979924 -0.0002539793 0)
(-0.0003585802 -0.0003040911 -3.844824e-26)
(-0.0003093938 -0.0003527755 2.751535e-26)
(-0.0004265921 -2.61996e-05 0)
(-0.0004172252 -7.83582e-05 -9.805947e-28)
(-0.0004014222 -0.0001293745 -1.634069e-27)
(-0.0003781142 -0.0001791896 8.547467e-26)
(-0.0003495246 -0.0002238884 2.13247e-26)
(-0.0003122495 -0.0002682267 4.973219e-26)
(-0.0002686033 -0.0003073548 1.622986e-26)
(-0.0003771529 -2.321268e-05 -1.427973e-28)
(-0.0003687271 -6.964383e-05 -4.394959e-28)
(-0.0003542953 -0.0001146019 0)
(-0.0003335303 -0.0001576766 -1.11281e-28)
(-0.0003062008 -0.0001983113 2.809672e-26)
(-0.0002735526 -0.0002352088 2.487542e-26)
(-0.0002351321 -0.0002672068 -6.746271e-27)
(-0.0003331374 -2.053834e-05 3.153755e-26)
(-0.0003255909 -6.175312e-05 -3.158248e-26)
(-0.0003122021 -0.000101999 5.184701e-26)
(-0.0002942933 -0.000138779 -6.192967e-26)
(-0.0002695316 -0.0001742913 2.254295e-26)
(-0.0002408184 -0.0002055789 0)
(-0.0002073379 -0.0002322186 5.849134e-27)
(-0.0002940927 -1.812004e-05 2.798652e-26)
(-0.0002871312 -5.472678e-05 -2.663972e-26)
(-0.0002759201 -8.921504e-05 2.534971e-26)
(-0.0002591528 -0.0001225071 0)
(-0.0002379366 -0.0001528387 -2.193203e-26)
(-0.0002128699 -0.0001796038 0)
(-0.0001840099 -0.0002021878 1.678515e-26)
(-0.0002596827 -1.584832e-05 0)
(-0.0002538918 -4.781662e-05 0)
(-0.0002435777 -7.872293e-05 -4.535091e-26)
(-0.0002290073 -0.0001075846 0)
(-0.0002106309 -0.0001338459 -3.884721e-26)
(-0.0001888319 -0.0001570587 -1.735413e-26)
(-0.0001639082 -0.0001767803 1.496603e-26)
(-0.0002293583 -1.401416e-05 -2.170625e-26)
(-0.0002246097 -4.187046e-05 0)
(-0.0002154978 -6.904541e-05 -1.963083e-26)
(-0.0002028521 -9.426502e-05 1.940428e-26)
(-0.000186899 -0.0001171897 -1.724362e-26)
(-0.0001680323 -0.0001373803 -3.091744e-26)
(-0.0001465105 -0.0001543648 -1.340881e-26)
(-0.0002029901 -1.220572e-05 -1.916523e-26)
(-0.0001986934 -3.681896e-05 -1.852193e-26)
(-0.0001909428 -6.053406e-05 0)
(-0.000180006 -8.261578e-05 1.771671e-26)
(-0.0001662182 -0.0001027079 1.281831e-27)
(-0.0001499987 -0.0001203784 -2.915007e-26)
(-0.0001316218 -0.0001351658 -5.075133e-27)
(-0.0001798182 -1.068145e-05 -1.701088e-26)
(-0.0001761108 -3.224486e-05 -1.651153e-26)
(-0.0001694555 -5.304946e-05 1.580399e-26)
(-0.0001599913 -7.247232e-05 0)
(-0.0001480721 -9.021791e-05 0)
(-0.0001340498 -0.000106047 -1.23611e-26)
(-0.0001179648 -0.0001199949 2.223339e-26)
(-0.000159504 -9.330093e-06 -1.508474e-26)
(-0.0001563301 -2.823791e-05 -1.466863e-26)
(-0.0001506038 -4.651453e-05 1.40421e-26)
(-0.0001424086 -6.361798e-05 0)
(-0.0001320692 -7.928847e-05 9.863236e-28)
(-0.0001198613 -9.326983e-05 1.528513e-30)
(-0.0001057826 -0.0001054425 -1.320843e-27)
(-0.0001416943 -8.149228e-06 0)
(-0.0001389944 -2.472988e-05 -1.303954e-26)
(-0.0001340535 -4.080797e-05 1.251415e-26)
(-0.0001269489 -5.588713e-05 0)
(-0.0001179667 -6.975033e-05 -1.181375e-26)
(-0.0001073485 -8.219032e-05 -2.051545e-27)
(-9.512249e-05 -9.310665e-05 -1.166718e-27)
(-0.0001260801 -7.11788e-06 1.192763e-26)
(-0.0001237844 -2.166715e-05 -6.723575e-29)
(-0.0001195132 -3.582476e-05 1.104503e-26)
(-0.0001133459 -4.913021e-05 -3.049966e-28)
(-0.0001055295 -6.14001e-05 -3.731327e-28)
(-9.623688e-05 -7.248303e-05 -8.899263e-27)
(-8.560194e-05 -8.225004e-05 0)
(-0.0001123831 -6.217375e-06 2.126459e-26)
(-0.0001104281 -1.899226e-05 0)
(-0.0001067272 -3.147213e-05 0)
(-0.0001013585 -4.323598e-05 9.713292e-27)
(-9.451254e-05 -5.416809e-05 1.790064e-26)
(-8.618825e-05 -6.425078e-05 -7.971451e-27)
(-7.707451e-05 -7.267153e-05 0)
(-0.0001003598 -5.430163e-06 9.495937e-27)
(-9.869068e-05 -1.665203e-05 -5.175148e-29)
(-9.547525e-05 -2.765789e-05 -8.607791e-29)
(-9.078708e-05 -3.805023e-05 -2.423147e-28)
(-8.478128e-05 -4.771213e-05 7.583062e-27)
(-7.750177e-05 -5.65783e-05 0)
(-6.929216e-05 -6.447919e-05 -6.402821e-27)
(-8.979706e-05 -4.740898e-06 -7.256236e-30)
(-8.836865e-05 -1.46018e-05 -8.376194e-27)
(-8.556799e-05 -2.431391e-05 -8.08534e-27)
(-8.146628e-05 -3.350542e-05 -1.520783e-26)
(-7.619964e-05 -4.209065e-05 0)
(-6.983487e-05 -5.002605e-05 -6.376436e-27)
(-6.253919e-05 -5.714816e-05 7.749304e-30)
(-8.05102e-05 -4.135905e-06 -7.617502e-27)
(-7.928402e-05 -1.280173e-05 -1.493402e-26)
(-7.683725e-05 -2.137521e-05 -1.445998e-26)
(-7.323672e-05 -2.950554e-05 -7.024548e-27)
(-6.858083e-05 -3.714323e-05 -2.319456e-28)
(-6.29885e-05 -4.422465e-05 -5.757019e-27)
(-5.65372e-05 -5.063566e-05 5.558627e-27)
(-7.233953e-05 -3.603458e-06 -6.851973e-27)
(-7.128241e-05 -1.121684e-05 -1.341807e-26)
(-6.913435e-05 -1.879071e-05 -6.479719e-27)
(-6.594743e-05 -2.600901e-05 0)
(-6.172562e-05 -3.290164e-05 -1.555069e-27)
(-5.688724e-05 -3.90604e-05 -2.369415e-27)
(-5.117941e-05 -4.486023e-05 -5.654309e-28)
(-6.514822e-05 -3.13193e-06 -6.179556e-27)
(-6.42321e-05 -9.81226e-06 -6.034072e-27)
(-6.233554e-05 -1.649273e-05 1.536329e-28)
(-5.950567e-05 -2.286135e-05 1.423255e-28)
(-5.578149e-05 -2.893574e-05 0)
(-5.134354e-05 -3.459887e-05 -4.786745e-27)
(-4.638586e-05 -3.974228e-05 2.512661e-28)
(-5.881934e-05 -2.712873e-06 -5.581678e-27)
(-5.802098e-05 -8.563767e-06 -5.457228e-27)
(-5.633855e-05 -1.445185e-05 8.966056e-29)
(-5.382069e-05 -2.008139e-05 6.242492e-29)
(-5.051635e-05 -2.548592e-05 0)
(-4.651772e-05 -3.055436e-05 -4.149142e-27)
(-4.211329e-05 -3.516988e-05 4.450155e-28)
(-5.325225e-05 -2.338035e-06 3.536283e-30)
(-5.255109e-05 -7.447602e-06 -9.906526e-27)
(-5.104737e-05 -1.262774e-05 3.901449e-29)
(-4.878986e-05 -1.759801e-05 5.456874e-29)
(-4.583023e-05 -2.239925e-05 0)
(-4.223874e-05 -2.692981e-05 0)
(-3.829249e-05 -3.108833e-05 0)
(-4.836086e-05 -2.000531e-06 0)
(-4.773833e-05 -6.44286e-06 -4.509663e-27)
(-4.638114e-05 -1.098666e-05 0)
(-4.433157e-05 -1.536986e-05 4.073673e-27)
(-4.166665e-05 -1.9626e-05 -1.214885e-28)
(-3.842827e-05 -2.368126e-05 -1.481434e-28)
(-3.487281e-05 -2.743807e-05 3.098463e-27)
(-4.407189e-05 -1.69384e-06 -4.190181e-27)
(-4.350952e-05 -5.53235e-06 0)
(-4.226385e-05 -9.510454e-06 5.782484e-29)
(-4.034734e-05 -1.340593e-05 3.265253e-27)
(-3.796708e-05 -1.711296e-05 -4.375702e-27)
(-3.502707e-05 -2.076114e-05 0)
(-3.180546e-05 -2.416847e-05 2.989418e-27)
(-4.032426e-05 -1.410822e-06 -3.83804e-27)
(-3.980346e-05 -4.692437e-06 0)
(-3.864147e-05 -8.141478e-06 2.458489e-29)
(-3.68787e-05 -1.15376e-05 3.502831e-29)
(-3.461725e-05 -1.489092e-05 -6.527607e-27)
(-3.197673e-05 -1.813698e-05 3.017237e-27)
(-2.904375e-05 -2.12364e-05 -2.740335e-27)
(-3.706798e-05 -1.145901e-06 0)
(-3.656977e-05 -3.910187e-06 -3.461003e-27)
(-3.546287e-05 -6.879892e-06 2.045865e-29)
(-3.380517e-05 -9.846617e-06 3.189191e-27)
(-3.167274e-05 -1.282688e-05 -2.996681e-27)
(-2.923637e-05 -1.575377e-05 2.767529e-27)
(-2.654226e-05 -1.859999e-05 1.585682e-30)
(-3.426287e-05 -8.921248e-07 0)
(-3.376338e-05 -3.165634e-06 -3.213974e-27)
(-3.267386e-05 -5.6914e-06 3.107458e-27)
(-3.106948e-05 -8.270257e-06 2.967195e-27)
(-2.903527e-05 -1.092435e-05 -2.728626e-27)
(-2.674965e-05 -1.358895e-05 8.132892e-29)
(-2.425561e-05 -1.622968e-05 2.307047e-27)
(-3.187993e-05 -6.412795e-07 0)
(-3.134843e-05 -2.437444e-06 0)
(-3.023093e-05 -4.547392e-06 2.887265e-27)
(-2.862901e-05 -6.780096e-06 -2.728759e-27)
(-2.664835e-05 -9.159482e-06 7.889315e-31)
(-2.447068e-05 -1.161555e-05 0)
(-2.214205e-05 -1.410037e-05 0)
(-2.990297e-05 -3.830128e-07 -2.868283e-27)
(-2.929625e-05 -1.699838e-06 2.810368e-27)