/*--------------------------------*- C++ -*----------------------------------*\
| =========                 |                                                 |
| \\      /  F ield         | OpenFOAM: The Open Source CFD Toolbox           |
|  \\    /   O peration     | Version:  2206                                  |
|   \\  /    A nd           | Website:  www.openfoam.com                      |
|    \\/     M anipulation  |                                                 |
\*---------------------------------------------------------------------------*/
FoamFile
{
    version     2.0;
    format      ascii;
    arch        "LSB;label=32;scalar=64";
    class       volVectorField;
    location    "1.8";
    object      U.b_0;
}
// * * * * * * * * * * * * * * * * * * * * * * * * * * * * * * * * * * * * * //

dimensions      [0 1 -1 0 0 0 0];

internalField   nonuniform List<vector> 
13078
(
(-5.092571e-06 4.005206e-06 -3.017646e-27)
(-5.270727e-06 3.872053e-05 4.397139e-30)
(-4.454659e-06 1.634206e-05 2.087146e-27)
(-4.564698e-06 4.915124e-06 0)
(-4.679255e-06 -2.887953e-06 2.466301e-28)
(-4.808373e-06 -7.844856e-06 5.4153e-29)
(-4.945178e-06 -1.185133e-05 -1.005073e-28)
(2.349605e-05 3.047355e-06 0)
(4.654691e-06 2.653693e-05 -1.710185e-29)
(1.145681e-06 1.517008e-05 0)
(-1.470205e-06 4.230083e-06 0)
(-2.412045e-06 -2.790641e-06 5.498356e-31)
(-2.982381e-06 -7.806497e-06 7.124154e-31)
(-3.420136e-06 -1.186803e-05 1.983803e-30)
(4.315742e-05 5.113072e-06 2.710478e-27)
(1.900582e-05 1.274517e-05 -1.476326e-27)
(7.106425e-06 8.269525e-06 -5.607101e-28)
(2.523065e-06 2.217513e-06 -7.307606e-28)
(3.937885e-07 -3.265714e-06 -1.774644e-28)
(-8.332143e-07 -7.967572e-06 0)
(-1.689358e-06 -1.198302e-05 -6.972785e-34)
(3.025811e-05 3.486532e-06 1.655956e-27)
(1.859218e-05 6.808744e-06 -2.374896e-27)
(1.07671e-05 4.487629e-06 -1.581555e-27)
(6.024215e-06 4.776975e-07 -4.974547e-28)
(3.351121e-06 -4.05716e-06 9.01644e-30)
(1.583745e-06 -8.37522e-06 0)
(2.894963e-07 -1.228882e-05 1.337874e-30)
(2.472217e-05 2.163449e-06 2.983523e-30)
(1.886131e-05 3.919121e-06 -1.049856e-27)
(1.346127e-05 2.125057e-06 -1.632793e-27)
(9.331351e-06 -1.177592e-06 -1.181412e-27)
(6.309186e-06 -5.022493e-06 4.681741e-28)
(4.204268e-06 -9.061478e-06 -1.535224e-32)
(2.501699e-06 -1.286941e-05 1.835453e-28)
(2.373543e-05 1.1855e-06 0)
(2.011977e-05 1.803336e-06 -6.910083e-30)
(1.606997e-05 9.120029e-08 6.437886e-30)
(1.245199e-05 -2.825732e-06 -7.091872e-28)
(9.457104e-06 -6.358848e-06 4.430941e-30)
(6.945128e-06 -1.004497e-05 -1.28416e-28)
(4.919947e-06 -1.378383e-05 -4.803208e-28)
(2.431822e-05 4.319518e-07 0)
(2.189996e-05 8.584869e-08 -1.109064e-27)
(1.876231e-05 -1.799116e-06 -9.453123e-28)
(1.559062e-05 -4.547804e-06 -2.216421e-29)
(1.26059e-05 -7.920933e-06 -6.659542e-28)
(9.942094e-06 -1.149914e-05 2.435266e-29)
(7.475884e-06 -1.504193e-05 0)
(2.586589e-05 -1.518989e-07 2.519351e-27)
(2.413628e-05 -1.342602e-06 -1.194748e-27)
(2.161503e-05 -3.541423e-06 -1.086953e-27)
(1.875738e-05 -6.40365e-06 0)
(1.582089e-05 -9.735657e-06 -1.626428e-27)
(1.301206e-05 -1.326334e-05 3.252431e-29)
(1.030887e-05 -1.68081e-05 4.425235e-29)
(2.815842e-05 -6.26122e-07 1.207716e-31)
(2.682357e-05 -2.584419e-06 2.620021e-27)
(2.468701e-05 -5.227734e-06 1.228353e-27)
(2.205205e-05 -8.319296e-06 2.011341e-29)
(1.914891e-05 -1.175735e-05 -3.796187e-27)
(1.621193e-05 -1.534006e-05 4.112336e-29)
(1.325641e-05 -1.892749e-05 0)
(3.110464e-05 -1.038567e-06 -3.003132e-27)
(2.998871e-05 -3.717921e-06 2.905402e-27)
(2.807673e-05 -6.876514e-06 1.36661e-27)
(2.557092e-05 -1.031176e-05 -2.488821e-27)
(2.265739e-05 -1.397514e-05 -1.076801e-30)
(1.958127e-05 -1.771077e-05 0)
(1.637512e-05 -2.141481e-05 0)
(3.467348e-05 -1.421715e-06 0)
(3.366918e-05 -4.805172e-06 0)
(3.186636e-05 -8.531311e-06 3.07658e-27)
(2.940171e-05 -1.240308e-05 -2.831825e-27)
(2.642158e-05 -1.639432e-05 1.36509e-30)
(2.317531e-05 -2.037531e-05 0)
(1.970063e-05 -2.427013e-05 0)
(3.887153e-05 -1.797874e-06 0)
(3.790919e-05 -5.893979e-06 -3.639514e-27)
(3.612952e-05 -1.023723e-05 3.470378e-27)
(3.362733e-05 -1.462491e-05 3.170293e-27)
(3.05198e-05 -1.903497e-05 -2.990289e-27)
(2.705847e-05 -2.334856e-05 0)
(2.328115e-05 -2.750918e-05 2.405013e-27)
(4.373097e-05 -2.182907e-06 0)
(4.276218e-05 -7.022385e-06 -4.116796e-27)
(4.093845e-05 -1.203722e-05 -3.601541e-29)
(3.83274e-05 -1.701454e-05 3.645399e-27)
(3.503337e-05 -2.192844e-05 -3.346101e-27)
(3.130018e-05 -2.665899e-05 2.990532e-27)
(2.717391e-05 -3.115995e-05 2.576003e-30)
(4.930419e-05 -2.589334e-06 -4.72896e-27)
(4.829198e-05 -8.222075e-06 0)
(4.636836e-05 -1.397246e-05 -4.225419e-29)
(4.357369e-05 -1.961147e-05 -5.950698e-29)
(4.005396e-05 -2.51069e-05 -7.619359e-27)
(3.597226e-05 -3.034555e-05 3.423203e-27)
(3.144255e-05 -3.526118e-05 -2.988967e-27)
(5.566081e-05 -3.027653e-06 -5.334567e-27)
(5.457588e-05 -9.522668e-06 0)
(5.251002e-05 -1.609342e-05 -9.776955e-29)
(4.945751e-05 -2.251087e-05 5.611254e-27)
(4.573911e-05 -2.856016e-05 -2.982385e-27)
(4.116384e-05 -3.444214e-05 0)
(3.615821e-05 -3.985949e-05 3.419896e-27)
(6.28854e-05 -3.506221e-06 0)
(6.169911e-05 -1.094323e-05 -5.881054e-27)
(5.945045e-05 -1.8397e-05 0)
(5.618484e-05 -2.557792e-05 5.487827e-27)
(5.200224e-05 -3.249794e-05 1.997617e-28)
(4.694268e-05 -3.903351e-05 2.41589e-28)
(4.139452e-05 -4.502046e-05 4.186944e-27)
(7.107981e-05 -4.035997e-06 0)
(6.976359e-05 -1.252036e-05 -1.328749e-26)
(6.727889e-05 -2.09744e-05 -6.443536e-29)
(6.36815e-05 -2.908154e-05 -8.95687e-29)
(5.902919e-05 -3.686831e-05 0)
(5.340497e-05 -4.41688e-05 0)
(4.722925e-05 -5.081211e-05 0)
(8.036476e-05 -4.626634e-06 -7.678931e-27)
(7.889015e-05 -1.427902e-05 -7.529091e-27)
(7.612189e-05 -2.38501e-05 -1.469519e-28)
(7.211488e-05 -3.300197e-05 -1.018086e-28)
(6.692014e-05 -4.175255e-05 0)
(6.065122e-05 -4.992229e-05 -6.006293e-27)
(5.374615e-05 -5.731508e-05 -7.145985e-28)
(9.088008e-05 -5.288264e-06 -8.680145e-27)
(8.921572e-05 -1.625019e-05 -8.505208e-27)
(8.611175e-05 -2.707457e-05 -2.503304e-28)
(8.161934e-05 -3.740128e-05 -2.309387e-28)
(7.577144e-05 -4.722596e-05 0)
(6.881578e-05 -5.636073e-05 -6.456876e-27)
(6.103515e-05 -6.462325e-05 -4.026282e-28)
(0.0001027875 -6.032955e-06 -9.820219e-27)
(0.0001008982 -1.846855e-05 -1.916978e-26)
(9.740422e-05 -3.070689e-05 -9.215832e-27)
(9.236253e-05 -4.238601e-05 0)
(8.574294e-05 -5.352576e-05 2.522852e-27)
(7.817899e-05 -6.347339e-05 3.821732e-27)
(6.921693e-05 -7.282274e-05 9.049429e-28)
(0.0001162726 -6.87276e-06 -1.111575e-26)
(0.0001141163 -2.096873e-05 -2.163371e-26)
(0.0001101645 -3.478817e-05 -2.072416e-26)
(0.0001044954 -4.79191e-05 -9.553694e-27)
(9.722569e-05 -6.025993e-05 3.725258e-28)
(8.849596e-05 -7.171248e-05 -8.121479e-27)
(7.837678e-05 -8.208686e-05 6.779563e-27)
(0.0001315504 -7.824329e-06 0)
(0.000129078 -2.380081e-05 -1.217401e-26)
(0.0001245901 -3.941785e-05 -1.165054e-26)
(0.0001181681 -5.423708e-05 -2.22571e-26)
(0.0001099803 -6.810536e-05 0)
(0.0001000784 -8.096028e-05 -9.178496e-27)
(8.866107e-05 -9.253325e-05 1.230216e-29)
(0.000148868 -8.90355e-06 1.42044e-26)
(0.000146024 -2.701235e-05 0)
(0.0001409162 -4.466435e-05 0)
(0.0001336256 -6.138953e-05 3.68592e-28)
(0.0001243402 -7.699319e-05 1.212345e-26)
(0.0001130668 -9.138291e-05 0)
(0.0001002683 -0.0001042791 -9.298951e-27)
(0.0001685077 -1.012874e-05 3.214832e-26)
(0.0001652274 -3.065638e-05 0)
(0.000159405 -5.061453e-05 0)
(0.0001511221 -6.950791e-05 1.377927e-26)
(0.000140609 -8.715403e-05 2.579605e-26)
(0.0001277777 -0.0001035428 -1.18898e-26)
(0.0001136705 -0.0001173683 0)
(0.0001907895 -1.151956e-05 1.819583e-26)
(0.0001869967 -3.479019e-05 1.069324e-28)
(0.0001803487 -5.735574e-05 1.716692e-26)
(0.0001709201 -7.867375e-05 4.838307e-28)
(0.0001590164 -9.84672e-05 6.221331e-28)
(0.0001448083 -0.000116517 -1.347372e-26)
(0.0001284132 -0.0001326131 0)
(0.0002160738 -1.309751e-05 0)
(0.0002116821 -3.947952e-05 -2.003352e-26)
(0.0002040831 -6.500509e-05 1.922596e-26)
(0.0001933367 -8.909667e-05 0)
(0.000179789 -0.0001114423 -1.544292e-26)
(0.0001636905 -0.0001317475 3.249657e-27)
(0.0001449648 -0.0001498665 1.852508e-27)
(0.0002447623 -1.488321e-05 -2.332621e-26)
(0.0002396811 -4.4789e-05 -2.268518e-26)
(0.0002309922 -7.366797e-05 2.173373e-26)
(0.000218751 -0.0001008994 0)
(0.0002033376 -0.0001261292 -1.55198e-27)
(0.000185022 -0.000149005 -2.376529e-30)
(0.0001636447 -0.0001693677 2.092463e-27)
(0.0002772887 -1.689788e-05 -2.642789e-26)
(0.0002714504 -5.07679e-05 -2.566886e-26)
(0.0002615027 -8.345303e-05 2.461131e-26)
(0.0002475732 -0.0001142432 0)
(0.000230054 -0.0001427618 0)
(0.0002092903 -0.0001687105 -1.942908e-26)
(0.0001851004 -0.0001921955 -1.059359e-27)
(0.0003141336 -1.913027e-05 -2.998907e-26)
(0.0003074828 -5.747759e-05 -2.92629e-26)
(0.0002960879 -9.447492e-05 0)
(0.0002802631 -0.0001292852 2.463378e-26)
(0.0002603336 -0.0001614843 -1.991629e-27)
(0.0002366971 -0.0001905006 -4.15917e-26)
(0.0002094869 -0.0002156452 7.964137e-27)
(0.0003557277 -2.173434e-05 -3.39016e-26)
(0.0003485148 -6.472241e-05 0)
(0.0003353427 -0.0001067571 -3.21644e-26)
(0.0003173936 -0.0001462289 2.881754e-26)
(0.000294784 -0.0001828056 -2.74434e-26)
(0.000267807 -0.0002159694 -4.966102e-26)
(0.0002364722 -0.0002450763 -2.17673e-26)
(0.0004031254 -2.42942e-05 0)
(0.0003944643 -7.308998e-05 0)
(0.0003798599 -0.000120403 -7.139964e-26)
(0.0003596125 -0.0001651563 0)
(0.0003341587 -0.0002067679 -6.222905e-26)
(0.0003037184 -0.0002448046 -2.815653e-26)
(0.0002682423 -0.0002787638 2.466558e-26)
(0.0004563699 -2.742649e-05 -4.370379e-26)
(0.000446071 -8.260391e-05 4.175934e-26)
(0.0004306098 -0.0001347488 3.997408e-26)
(0.0004078225 -0.0001857635 0)
(0.0003791449 -0.0002333364 -3.531772e-26)
(0.0003451176 -0.0002769225 0)
(0.0003052073 -0.0003159002 2.026559e-26)
(0.0005161454 -3.066568e-05 -4.926671e-26)
(0.0005050784 -9.19567e-05 4.791129e-26)
(0.0004868104 -0.0001518926 1.369802e-25)
(0.0004633292 -0.0002074488 8.800779e-26)
(0.0004306218 -0.0002623558 -3.673876e-26)
(0.000392893 -0.00031271 3.872125e-27)
(0.0003481502 -0.0003584256 -4.436358e-27)
(0.000582808 -3.419636e-05 1.035989e-28)
(0.0005704377 -0.0001022378 3.176297e-28)
(0.0005511457 -0.0001680796 5.411623e-26)
(0.0005243614 -0.0002319468 9.404112e-26)
(0.0004894167 -0.0002935995 -5.276705e-26)
(0.0004480943 -0.0003518794 8.734071e-27)
(0.0003987813 -0.0004059167 2.018171e-26)
(0.0006569104 -3.799358e-05 -1.152025e-28)
(0.0006428678 -0.0001135071 -3.534803e-28)
(0.0006220615 -0.0001867485 5.654365e-26)
(0.0005923449 -0.0002589402 2.900017e-26)
(0.0005572078 -0.0003250659 -3.822052e-26)
(0.0005121795 -0.0003931264 3.722049e-26)
(0.0004584428 -0.0004574931 0)
(0.0007388503 -4.194025e-05 0)
(0.0007227942 -0.0001250837 0)
(0.0007003875 -0.0002053503 6.637314e-26)
(0.0006702493 -0.0002838201 7.000747e-26)
(0.000631157 -0.0003622103 1.007364e-25)
(0.0005872642 -0.0004346263 9.440424e-26)
(0.0005281899 -0.0005121751 0)
(0.0008288682 -4.602427e-05 -2.798513e-28)
(0.0008102629 -0.0001370347 8.34942e-28)
(0.0007856886 -0.0002246869 2.814175e-27)
(0.0007542394 -0.0003100245 0)
(0.000715245 -0.0003942803 1.334115e-25)
(0.0006679215 -0.0004797312 -1.194266e-26)
(0.0006070971 -0.0005687111 -2.849676e-26)
(0.0009269353 -5.011876e-05 -8.834833e-26)
(0.0009052564 -0.0001490797 9.396354e-28)
(0.0008783083 -0.0002444824 -8.333541e-26)
(0.0008453911 -0.0003379246 0)
(0.0008056078 -0.0004313699 8.594175e-26)
(0.0007545767 -0.0005295225 -1.52322e-26)
(0.0006943111 -0.0006256375 -1.505576e-25)
(0.001032463 -5.4069e-05 -9.854707e-26)
(0.001007977 -0.0001607591 -9.512611e-26)
(0.0009787151 -0.0002644488 -9.308663e-26)
(0.0009439365 -0.0003659351 -9.242365e-27)
(0.0009021844 -0.0004672436 -2.378747e-26)
(0.0008489191 -0.0005719365 3.362082e-26)
(0.0007790675 -0.000689915 -7.163811e-26)
(0.001144727 -5.824153e-05 0)
(0.001118595 -0.0001710313 1.0411e-25)
(0.001086927 -0.0002833001 1.033782e-25)
(0.001048924 -0.0003936709 5.10121e-27)
(0.001004093 -0.0005056505 -1.068649e-25)
(0.0009475279 -0.0006258175 -1.65665e-26)
(0.0008680918 -0.0007677714 0)
(0.00126343 -6.075631e-05 1.214918e-25)
(0.001232948 -0.0001819722 2.276751e-25)
(0.001200541 -0.0002969058 1.003391e-25)
(0.001160411 -0.0004175041 2.199925e-25)
(0.001113464 -0.0005429583 -1.190542e-25)
(0.001055609 -0.0006800003 7.749202e-26)
(0.0009714952 -0.0008390944 -4.625357e-26)
(0.001380044 -6.160756e-05 1.32678e-25)
(0.001349268 -0.0001849913 -1.269254e-27)
(0.001313019 -0.0003102872 0)
(0.001278433 -0.0004341871 4.663493e-27)
(0.001233858 -0.0005784955 2.309573e-25)
(0.001174676 -0.0007429377 2.349175e-25)
(0.001077271 -0.0009456509 2.699597e-26)
(0.001485438 -6.000361e-05 -1.435855e-25)
(0.00145725 -0.0001835797 2.611304e-27)
(0.001427176 -0.0003115339 4.477725e-27)
(0.00139623 -0.0004537042 -3.08732e-25)
(0.001363499 -0.0006093981 1.922483e-25)
(0.00129896 -0.0008244481 1.180288e-25)
(0.001171158 -0.001102029 9.883158e-26)
(0.00157066 -5.594203e-05 -1.521012e-25)
(0.001552143 -0.0001772808 0)
(0.001531845 -0.0003064348 9.046412e-27)
(0.001516459 -0.0004571259 1.342528e-26)
(0.001482087 -0.0006637007 -1.373726e-25)
(0.001412417 -0.0009352063 -2.009283e-25)
(0.00126173 -0.001320785 3.095608e-25)
(0.001631335 -5.076785e-05 0)
(0.001627382 -0.0001644128 5.244379e-27)
(0.001618182 -0.0002913889 9.090959e-27)
(0.001615618 -0.0004619972 -2.869675e-29)
(0.00158138 -0.0007218543 1.474888e-25)
(0.001496224 -0.001092395 3.621208e-25)
(0.001347521 -0.001534854 4.579329e-25)
(0.001667392 -4.398902e-05 0)
(0.00167509 -0.0001485156 9.083776e-27)
(0.001674052 -0.000274543 1.696944e-26)
(0.001670071 -0.0004769919 -1.261807e-28)
(0.001634334 -0.0007991345 3.433063e-25)
(0.0015555 -0.001229351 3.357239e-25)
(0.001418728 -0.001784666 2.940639e-29)
(0.001673918 -3.655992e-05 -1.609112e-25)
(0.001691553 -0.0001312477 1.656951e-25)
(0.00168985 -0.000275202 1.411646e-26)
(0.001665578 -0.0005231795 1.636394e-26)
(0.001624845 -0.0008802186 -1.272859e-25)
(0.001553746 -0.001351661 1.269752e-25)
(0.001453487 -0.001914378 2.128537e-25)
(0.001645671 -3.027947e-05 -1.576608e-25)
(0.001667978 -0.0001298613 1.619805e-25)
(0.001654333 -0.0003076222 1.587567e-25)
(0.001612187 -0.0005929878 -3.763865e-26)
(0.001552024 -0.0009922693 -3.158941e-25)
(0.00147545 -0.001471205 4.966964e-25)
(0.001397359 -0.002043401 5.450534e-25)
(0.001580894 -3.127705e-05 2.884666e-29)
(0.00159929 -0.0001527155 -1.488816e-25)
(0.00156794 -0.0003704121 2.821318e-25)
(0.00150867 -0.0006920994 -5.188522e-29)
(0.001429315 -0.00110623 -1.795892e-25)
(0.001338745 -0.001591275 -9.393442e-26)
(0.001244804 -0.002156237 7.242717e-26)
(0.001478854 -4.467699e-05 -1.831703e-31)
(0.001486729 -0.0002034472 -1.356129e-25)
(0.001437611 -0.0004619246 4.484733e-28)
(0.001360456 -0.0008161636 -4.923264e-29)
(0.001264683 -0.001249987 -1.682109e-25)
(0.001160196 -0.001741103 -3.394827e-26)
(0.001047299 -0.002276766 -1.646286e-25)
(0.001340183 -7.135124e-05 -3.405431e-29)
(0.001337454 -0.0002820622 -8.397869e-31)
(0.001274857 -0.0005750824 -3.046179e-25)
(0.001186007 -0.0009584935 8.698439e-26)
(0.001074741 -0.001409822 -6.767258e-26)
(0.0009513274 -0.001904819 9.288649e-26)
(0.0008218404 -0.002429189 1.671223e-25)
(0.001165885 -0.0001046499 5.460022e-26)
(0.001159728 -0.0003727193 2.348191e-31)
(0.001100942 -0.0007097355 -2.603692e-25)
(0.001002382 -0.001114574 -1.190117e-26)
(0.0008848823 -0.001588334 3.707941e-25)
(0.0007459092 -0.002098699 5.297324e-25)
(0.0005840045 -0.002631848 -3.074201e-25)
(0.000960932 -0.0001369119 4.529809e-26)
(0.0009592043 -0.0004539124 -3.893907e-26)
(0.0009073145 -0.000820201 -1.503777e-26)
(0.0008218456 -0.001250696 3.824458e-27)
(0.0007173543 -0.001741522 -1.311379e-25)
(0.000590753 -0.00228739 -1.205199e-26)
(0.0004402523 -0.002889192 1.801163e-25)
(0.0007346168 -0.0001634664 -8.579583e-28)
(0.000739604 -0.0005179761 -3.359141e-26)
(0.0007063526 -0.0009033821 2.543734e-30)
(0.0006524253 -0.001347237 1.085894e-27)
(0.0005863518 -0.001855159 2.980795e-26)
(0.0005081013 -0.002433879 -1.058757e-26)
(0.0004119153 -0.003071234 -1.662965e-25)
(0.0004949103 -0.0001817978 -9.495467e-28)
(0.0005053625 -0.000557364 -2.756759e-27)
(0.0004955297 -0.0009493878 -8.109519e-27)
(0.0004779639 -0.001394974 3.328642e-30)
(0.0004590818 -0.001902818 3.072784e-26)
(0.0004443105 -0.002481095 -6.342779e-27)
(0.00043915 -0.003106064 9.959303e-26)
(0.0002380742 -0.0001905316 -1.071476e-27)
(0.0002505285 -0.0005687462 -8.458047e-27)
(0.0002624399 -0.0009543846 -2.182605e-26)
(0.0002788731 -0.001389527 2.415313e-26)
(0.000302697 -0.001880538 -2.062368e-29)
(0.0003407146 -0.002429748 -5.890785e-27)
(0.0004000922 -0.003005988 -8.892485e-26)
(-3.761721e-05 -0.0001840963 -1.513954e-27)
(-2.599909e-05 -0.0005487698 -8.556677e-27)
(2.459044e-06 -0.0009199913 8.696777e-27)
(4.451835e-05 -0.001338045 2.353954e-26)
(9.840574e-05 -0.001805635 -5.971492e-26)
(0.0001668872 -0.002321917 -6.538155e-26)
(0.0002527248 -0.002858449 -1.717725e-25)
(-0.000320083 -0.000164341 -7.129545e-27)
(-0.0003115247 -0.0005041081 5.975382e-27)
(-0.0002718162 -0.0008575945 7.759607e-27)
(-0.0002128242 -0.001258944 3.072433e-27)
(-0.0001411107 -0.001707596 1.564525e-31)
(-5.832665e-05 -0.002200824 1.152089e-26)
(3.466884e-05 -0.002713476 -5.124857e-29)
(-0.0006025888 -0.0001395625 -7.840125e-28)
(-0.0005969938 -0.0004451092 -2.312892e-27)
(-0.0005507689 -0.0007784922 4.755096e-26)
(-0.0004811889 -0.001165143 3.990547e-27)
(-0.000399803 -0.00160097 -2.678734e-26)
(-0.0003116703 -0.002080832 -1.919639e-27)
(-0.0002211587 -0.002586054 1.815878e-25)
(-0.0008801833 -0.0001115977 4.088835e-26)
(-0.0008769165 -0.0003775627 9.559722e-31)
(-0.0008294919 -0.0006892187 6.538956e-26)
(-0.0007541138 -0.001062879 1.225733e-29)
(-0.0006696354 -0.001491513 -1.184313e-25)
(-0.0005828605 -0.00196424 -2.351355e-28)
(-0.0005091091 -0.002484099 1.492873e-25)
(-0.001136745 -8.271574e-05 5.337277e-26)
(-0.001136833 -0.0003071089 -1.346165e-26)
(-0.001096107 -0.0005951523 -6.78602e-26)
(-0.001026954 -0.0009569875 -2.663345e-25)
(-0.0009507642 -0.00139089 -5.738021e-25)
(-0.0008740928 -0.001871777 -4.173157e-25)
(-0.0008156816 -0.002401037 -1.936521e-28)
(-0.001356405 -5.613074e-05 -2.586255e-31)
(-0.001363646 -0.0002388061 -1.706646e-29)
(-0.001325466 -0.0005009923 -5.68102e-29)
(-0.001272317 -0.000855075 6.568732e-29)
(-0.001207682 -0.001288497 -8.381959e-26)
(-0.00114369 -0.0017839 3.439341e-26)
(-0.001088935 -0.002334918 6.03179e-26)
(-0.001529983 -3.720732e-05 6.854238e-28)
(-0.001546903 -0.0001826073 2.209993e-27)
(-0.001517757 -0.000424954 1.330067e-25)
(-0.001472395 -0.0007667105 2.644566e-26)
(-0.001416204 -0.001197749 1.150157e-25)
(-0.001354319 -0.00170367 1.989825e-25)
(-0.001281962 -0.002281922 8.18899e-26)
(-0.001655236 -2.953022e-05 8.118121e-29)
(-0.001679571 -0.0001491704 3.536258e-27)
(-0.001661781 -0.0003652297 1.565099e-25)
(-0.00162495 -0.0006884496 -2.327353e-26)
(-0.00157142 -0.001109152 2.30002e-26)
(-0.001501031 -0.001612302 -7.894513e-26)
(-0.00140926 -0.002211536 -1.264677e-25)
(-0.001732802 -3.268505e-05 -1.659278e-25)
(-0.001758209 -0.0001382294 -1.652152e-25)
(-0.001751205 -0.0003240937 1.193144e-26)
(-0.001720199 -0.0006202065 -2.002304e-26)
(-0.00166955 -0.00103068 1.984642e-25)
(-0.001591147 -0.001518037 3.00136e-25)
(-0.001487635 -0.002091461 2.647836e-28)
(-0.001763458 -4.144125e-05 -1.696936e-25)
(-0.001782998 -0.0001458186 -1.70358e-25)
(-0.001783555 -0.0003023118 -1.052029e-26)
(-0.001761094 -0.0005639247 -1.822711e-26)
(-0.001717747 -0.0009273874 5.638995e-26)
(-0.001630091 -0.001398375 8.198264e-26)
(-0.001492352 -0.00194375 -1.09624e-25)
(-0.001751921 -4.969284e-05 0)
(-0.001761475 -0.000164128 -1.000667e-26)
(-0.001761971 -0.0003026808 1.460473e-25)
(-0.001754753 -0.0005160304 9.734e-29)
(-0.001710446 -0.0008430099 -5.082534e-26)
(-0.001613165 -0.001260775 -7.151952e-28)
(-0.001446248 -0.00177239 9.993269e-26)
(-0.001705707 -5.612595e-05 0)
(-0.001706237 -0.0001770997 -5.483806e-27)
(-0.0016999 -0.0003149673 1.503001e-25)
(-0.001693885 -0.0004955348 6.061832e-34)
(-0.001651858 -0.0007574607 -6.082808e-29)
(-0.001555736 -0.001113654 4.89715e-25)
(-0.001385648 -0.001526906 3.361852e-25)
(-0.001631932 -5.988041e-05 -1.56822e-25)
(-0.001622723 -0.0001867975 0)
(-0.001608708 -0.0003249716 0)
(-0.001593135 -0.0004842092 1.652618e-31)
(-0.001557003 -0.0006937249 -2.70869e-25)
(-0.001478692 -0.0009625883 4.215158e-26)
(-0.001321708 -0.001322096 2.217555e-25)
(-0.001534975 -6.185693e-05 -1.473574e-25)
(-0.001520077 -0.0001896718 -2.568824e-27)
(-0.001500967 -0.0003254898 -4.512996e-27)
(-0.001475457 -0.0004758349 -4.830028e-26)
(-0.001442657 -0.0006410687 -3.557726e-25)
(-0.001378026 -0.0008582922 -3.541342e-25)
(-0.001250256 -0.00112943 6.337001e-26)
(-0.00142334 -6.176372e-05 0)
(-0.001406084 -0.0001876683 1.34006e-25)
(-0.001383904 -0.0003197072 0)
(-0.001357336 -0.0004544501 -1.187148e-26)
(-0.001317927 -0.0006089416 -1.623724e-26)
(-0.001261117 -0.000785323 -1.097314e-25)
(-0.001166556 -0.0009907749 -8.081758e-29)
(-0.001305705 -6.015818e-05 0)
(-0.001286902 -0.000182706 -1.215497e-25)
(-0.001266133 -0.0003044108 1.19237e-25)
(-0.001236314 -0.0004343897 0)
(-0.001196171 -0.0005729438 -2.882265e-26)
(-0.001142953 -0.0007222555 2.618509e-26)
(-0.001061358 -0.0008963776 -4.76972e-26)
(-0.001188369 -5.802447e-05 0)
(-0.001170883 -0.0001728588 -3.330891e-25)
(-0.001147995 -0.0002902234 -1.883488e-28)
(-0.001117659 -0.0004102228 -2.273463e-25)
(-0.001079512 -0.0005326645 -2.646444e-26)
(-0.001026568 -0.0006681427 9.184001e-26)
(-0.0009481373 -0.0008246542 -1.559793e-25)
(-0.001076088 -5.459102e-05 1.029176e-25)
(-0.00105884 -0.0001638932 -1.025234e-25)
(-0.001035495 -0.0002727542 4.71789e-29)
(-0.001005355 -0.0003823609 -1.816979e-25)
(-0.0009662086 -0.000494454 0)
(-0.0009142919 -0.000611668 0)
(-0.0008434287 -0.0007412386 -1.019008e-25)
(-0.0009693967 -5.10335e-05 9.233772e-26)
(-0.0009531359 -0.0001533343 -9.146975e-26)
(-0.0009300292 -0.0002546984 8.763539e-26)
(-0.0008996113 -0.0003546141 8.405714e-26)
(-0.0008588648 -0.0004576893 0)
(-0.0008054698 -0.0005653105 0)
(-0.0007412267 -0.0006691462 -9.11251e-26)
(-0.0008693646 -4.720081e-05 -8.309449e-26)
(-0.0008542466 -0.0001419142 -8.44373e-26)
(-0.0008323118 -0.0002343248 -2.861963e-27)
(-0.0008010922 -0.0003268024 7.082182e-26)
(-0.0007592133 -0.0004197594 2.924072e-26)
(-0.0007079218 -0.0005094444 -8.999328e-26)
(-0.0006409103 -0.0006037761 4.200302e-26)
(-0.0007769452 -4.313292e-05 -7.4478e-26)
(-0.0007633077 -0.0001295433 -8.057597e-28)
(-0.0007419635 -0.0002144098 2.640778e-27)
(-0.0007113473 -0.0002979828 3.69411e-27)
(-0.0006703914 -0.0003810363 0)
(-0.0006200111 -0.0004601383 -6.556123e-26)
(-0.0005557479 -0.0005391718 5.016318e-26)
(-0.0006923537 -3.928541e-05 0)
(-0.0006800687 -0.0001175555 -1.438362e-27)
(-0.0006595919 -0.0001947806 -2.408349e-27)
(-0.0006291455 -0.0002712478 1.399337e-25)
(-0.0005921746 -0.0003414021 3.154793e-26)
(-0.0005426192 -0.0004126689 8.893841e-26)
(-0.0004843696 -0.0004780038 3.196382e-26)
(-0.0006157835 -3.531387e-05 -2.125186e-28)
(-0.0006044693 -0.0001059764 -6.555495e-28)
(-0.0005853132 -0.0001749877 0)
(-0.0005577779 -0.0002421594 -1.7078e-28)
(-0.0005210154 -0.00030687 4.815631e-26)
(-0.0004767972 -0.0003673182 4.369076e-26)
(-0.0004243016 -0.0004221276 -1.042374e-26)
(-0.0005467773 -3.167312e-05 5.210617e-26)
(-0.0005364133 -9.521839e-05 -5.224963e-26)
(-0.0005181789 -0.0001577947 8.77018e-26)
(-0.0004940865 -0.0002159623 -1.033967e-25)
(-0.0004599425 -0.0002732878 3.913328e-26)
(-0.0004202505 -0.0003253804 0)
(-0.0003734185 -0.0003719437 9.169535e-27)
(-0.0004848623 -2.830516e-05 4.644414e-26)
(-0.0004750629 -8.543564e-05 -4.444469e-26)
(-0.0004596633 -0.0001397273 4.258695e-26)
(-0.0004363729 -0.0001929604 0)
(-0.000406688 -0.0002425279 -3.772721e-26)
(-0.0003713299 -0.0002876803 0)
(-0.000330057 -0.0003277079 3.023875e-26)
(-0.0004297077 -2.50576e-05 0)
(-0.000421456 -7.552177e-05 0)
(-0.0004069 -0.0001246887 -7.635153e-26)
(-0.0003863084 -0.0001713186 0)
(-0.0003601623 -0.0002146733 -6.684969e-26)
(-0.0003288033 -0.0002542073 -3.037126e-26)
(-0.0002923721 -0.0002893997 2.679311e-26)
(-0.000380606 -2.241407e-05 -3.629714e-26)
(-0.0003737443 -6.684881e-05 0)
(-0.0003606303 -0.0001104899 -3.316682e-26)
(-0.0003424588 -0.000151596 3.293171e-26)
(-0.0003193649 -0.0001897411 -2.965441e-26)
(-0.0002917218 -0.0002243414 -5.393831e-26)
(-0.0002596442 -0.0002547469 -2.383554e-26)
(-0.0003374947 -1.973491e-05 -3.212391e-26)
(-0.000331132 -5.937218e-05 -3.113974e-26)
(-0.0003198149 -9.777506e-05 0)
(-0.0003038476 -0.0001340333 3.002774e-26)
(-0.0002835665 -0.0001676589 2.058352e-27)
(-0.0002594157 -0.0001980348 -5.047215e-26)
(-0.0002315843 -0.0002244595 -8.268124e-27)
(-0.0002992744 -1.744546e-05 -2.854848e-26)
(-0.0002936829 -5.247135e-05 -2.77766e-26)
(-0.0002838191 -8.640566e-05 2.6697e-26)
(-0.0002697937 -0.0001184921 0)
(-0.0002520021 -0.0001483127 0)
(-0.0002308084 -0.0001755446 -2.138606e-26)
(-0.0002060398 -0.0002003077 3.759735e-26)
(-0.0002654971 -1.538184e-05 -2.532666e-26)
(-0.0002606317 -4.633236e-05 -2.467627e-26)
(-0.0002520241 -7.633005e-05 2.37058e-26)
(-0.000239713 -0.0001047254 0)
(-0.0002240726 -0.0001311339 1.606208e-27)
(-0.0002053769 -0.0001551805 2.62548e-30)
(-0.0001834686 -0.0001767066 -2.173972e-27)
(-0.0002356679 -1.3553e-05 0)
(-0.0002314685 -4.088255e-05 -2.191632e-26)
(-0.0002239446 -6.74136e-05 2.109364e-26)
(-0.0002131424 -9.254969e-05 0)
(-0.0001993973 -0.000115956 -2.004608e-26)
(-0.0001829569 -0.0001373197 -3.372341e-27)
(-0.0001637403 -0.0001564938 -1.926346e-27)
(-0.000209344 -1.193557e-05 1.998662e-26)
(-0.0002057258 -3.60662e-05 -1.102951e-28)
(-0.0001991469 -5.953592e-05 1.85778e-26)
(-0.0001896716 -8.178907e-05 -5.006319e-28)
(-0.0001775931 -0.0001025305 -6.138444e-28)
(-0.0001630722 -0.000121527 -1.515358e-26)
(-0.0001462199 -0.0001385668 0)
(-0.0001861166 -1.050783e-05 3.554687e-26)
(-0.0001829982 -3.181496e-05 0)
(-0.0001772411 -5.258561e-05 0)
(-0.0001689193 -7.231443e-05 1.63132e-26)
(-0.0001582508 -9.080639e-05 3.016402e-26)
(-0.0001451246 -0.0001080452 -1.348791e-26)
(-0.0001306164 -0.0001226563 0)
(-0.00016562 -9.24797e-06 1.582064e-26)
(-0.0001629292 -2.806169e-05 -8.595161e-29)
(-0.0001578855 -4.644236e-05 -1.426206e-28)
(-0.0001505659 -6.391113e-05 -4.014601e-28)
(-0.0001411468 -8.026013e-05 1.271532e-26)
(-0.0001296225 -9.538752e-05 0)
(-0.000116453 -0.0001089893 -1.078595e-26)
(-0.0001475285 -8.136344e-06 -1.232453e-29)
(-0.0001452043 -2.474899e-05 -1.389958e-26)
(-0.0001407822 -4.101869e-05 -1.34276e-26)
(-0.0001343435 -5.649911e-05 -2.528675e-26)
(-0.0001260465 -7.102559e-05 0)
(-0.0001159341 -8.452818e-05 -1.063565e-26)
(-0.0001041934 -9.671359e-05 1.287891e-29)
(-0.0001315543 -7.154906e-06 -1.256839e-26)
(-0.0001295437 -2.182421e-05 -2.464236e-26)
(-0.0001256623 -3.622777e-05 -2.387135e-26)
(-0.0001199904 -4.994613e-05 -1.160726e-26)
(-0.0001126353 -6.286808e-05 -3.869201e-28)
(-0.0001037334 -7.488648e-05 -9.523307e-27)
(-9.334354e-05 -8.579211e-05 9.199532e-27)
(-0.0001174441 -6.287976e-06 -1.123342e-26)
(-0.0001157003 -1.924021e-05 -2.19937e-26)
(-0.0001122833 -3.200171e-05 -1.062182e-26)
(-0.0001072534 -4.420442e-05 0)
(-0.0001005673 -5.586417e-05 -2.605774e-27)
(-9.287649e-05 -6.629499e-05 -3.958531e-27)
(-8.369317e-05 -7.610602e-05 -9.414924e-28)
(-0.0001049769 -5.519075e-06 -1.005558e-26)
(-0.0001034595 -1.69471e-05 -9.81289e-27)
(-0.0001004409 -2.824005e-05 2.599512e-28)
(-9.597688e-05 -3.903102e-05 2.399958e-28)
(-9.009276e-05 -4.931006e-05 0)
(-8.303414e-05 -5.887634e-05 -7.773813e-27)
(-7.508666e-05 -6.753292e-05 4.19057e-28)
(-9.396035e-05 -4.8364e-06 -9.003574e-27)
(-9.263596e-05 -1.491088e-05 -8.79542e-27)
(-8.996351e-05 -2.490296e-05 1.528204e-28)
(-8.600325e-05 -3.446791e-05 1.059243e-28)
(-8.079993e-05 -4.361895e-05 0)
(-7.446026e-05 -5.216465e-05 -6.653344e-27)
(-6.743286e-05 -5.989554e-05 7.440008e-28)
(-8.422621e-05 -4.228133e-06 6.37909e-30)
(-8.306507e-05 -1.309748e-05 -1.580403e-26)
(-8.068858e-05 -2.193172e-05 6.713101e-29)
(-7.715787e-05 -3.04073e-05 9.334619e-29)
(-7.252437e-05 -3.854627e-05 0)
(-6.686343e-05 -4.617239e-05 0)
(-6.060492e-05 -5.310439e-05 0)
(-7.562763e-05 -3.684449e-06 0)
(-7.46032e-05 -1.147657e-05 -7.111111e-27)
(-7.247752e-05 -1.927634e-05 0)
(-6.929981e-05 -2.678707e-05 6.397708e-27)
(-6.516471e-05 -3.401561e-05 -2.084908e-28)
(-6.010225e-05 -4.083112e-05 -2.521003e-28)
(-5.450784e-05 -4.706144e-05 4.82682e-27)
(-6.803671e-05 -3.196135e-06 -6.526483e-27)
(-6.712288e-05 -1.002422e-05 0)
(-6.519771e-05 -1.691381e-05 1.025482e-28)
(-6.225559e-05 -2.363012e-05 4.954027e-27)
(-5.861865e-05 -2.994503e-05 -6.943402e-27)
(-5.407208e-05 -3.606428e-05 0)
(-4.905386e-05 -4.168166e-05 4.612096e-27)
(-6.134405e-05 -2.7528e-06 -5.888037e-27)
(-6.051564e-05 -8.704897e-06 0)
(-5.87553e-05 -1.475242e-05 4.465144e-29)
(-5.610261e-05 -2.065901e-05 6.275705e-29)
(-5.269113e-05 -2.63864e-05 -9.970474e-27)
(-4.867286e-05 -3.181893e-05 4.600157e-27)
(-4.416205e-05 -3.689234e-05 -4.164799e-27)
(-5.545683e-05 -2.347034e-06 0)
(-5.468998e-05 -7.501843e-06 -5.207906e-27)
(-5.305878e-05 -1.279835e-05 3.848736e-29)
(-5.06245e-05 -1.801591e-05 4.793148e-27)
(-4.747215e-05 -2.312503e-05 -4.501795e-27)
(-4.383498e-05 -2.800734e-05 4.150893e-27)
(-3.975636e-05 -3.262356e-05 2.739072e-30)
(-5.029612e-05 -1.969927e-06 0)
(-4.956222e-05 -6.388786e-06 -4.746541e-27)
(-4.801421e-05 -1.100368e-05 4.588144e-27)
(-4.573081e-05 -1.56044e-05 4.386869e-27)
(-4.280267e-05 -2.017048e-05 -4.012763e-27)
(-3.946816e-05 -2.459159e-05 1.48445e-28)
(-3.576332e-05 -2.88235e-05 3.390296e-27)
(-4.579804e-05 -1.611502e-06 0)
(-4.506233e-05 -5.339183e-06 0)
(-4.354494e-05 -9.330789e-06 4.171695e-27)
(-4.135075e-05 -1.338514e-05 -3.941459e-27)
(-3.859078e-05 -1.748756e-05 1.514714e-30)
(-3.54994e-05 -2.152719e-05 0)
(-3.211624e-05 -2.544726e-05 0)
(-4.191508e-05 -1.259916e-06 -4.040465e-27)
(-4.113095e-05 -4.322582e-06 3.958145e-27)
(-3.957973e-05 -7.741087e-06 1.882192e-27)
(-3.740793e-05 -1.131959e-05 -3.61476e-27)
(-3.475655e-05 -1.503923e-05 -1.22628e-30)