/*--------------------------------*- C++ -*----------------------------------*\
| =========                 |                                                 |
| \\      /  F ield         | OpenFOAM: The Open Source CFD Toolbox           |
|  \\    /   O peration     | Version:  2206                                  |
|   \\  /    A nd           | Website:  www.openfoam.com                      |
|    \\/     M anipulation  |                                                 |
\*---------------------------------------------------------------------------*/
FoamFile
{
    version     2.0;
    format      ascii;
    arch        "LSB;label=32;scalar=64";
    class       surfaceVectorField;
    location    "1.8";
    object      Ufa;
}
// * * * * * * * * * * * * * * * * * * * * * * * * * * * * * * * * * * * * * //

dimensions      [0 1 -1 0 0 0 0];

internalField   nonuniform List<vector> 
26037
(
(2.983269e-06 -6.761586e-05 8.700403e-24)
(-1.418432e-05 -6.464052e-05 7.467698e-28)
(2.456601e-07 -3.65306e-05 2.10823e-25)
(-8.545622e-06 -3.874878e-05 3.897254e-27)
(-1.113408e-07 -2.257684e-05 -2.040296e-29)
(-3.290393e-06 -2.453466e-05 -2.044929e-29)
(-1.679118e-07 -1.563493e-05 -5.7855e-30)
(-1.543215e-06 -1.702469e-05 0)
(-1.937221e-07 -1.186937e-05 1.947927e-27)
(-9.309082e-07 -1.301574e-05 -5.784466e-30)
(-2.079873e-07 -9.202958e-06 -1.163243e-29)
(-6.498188e-07 -1.016394e-05 -7.492725e-30)
(-5.033777e-07 -7.947707e-06 -5.823564e-30)
(-2.13166e-07 -7.112758e-06 7.924568e-28)
(-2.626061e-05 -3.519539e-05 -8.274912e-33)
(-2.323176e-05 -2.445691e-05 1.053838e-31)
(-1.219367e-05 -2.675387e-05 -8.354446e-33)
(-1.407269e-05 -2.355994e-05 2.077502e-31)
(-4.719484e-06 -1.896661e-05 0)
(-6.46008e-06 -1.83418e-05 6.219666e-30)
(-2.306119e-06 -1.440566e-05 3.419846e-34)
(-3.404721e-06 -1.45668e-05 1.158799e-29)
(-1.386983e-06 -1.131055e-05 5.678114e-34)
(-2.079475e-06 -1.175705e-05 2.288841e-29)
(-9.451977e-07 -8.908834e-06 7.915403e-34)
(-1.397961e-06 -9.453837e-06 2.259332e-34)
(-1.017768e-06 -7.51083e-06 -1.031263e-30)
(-7.066197e-07 -6.938128e-06 -5.83407e-30)
(-1.109059e-05 -1.272796e-05 3.228317e-31)
(-7.67298e-06 -6.944346e-06 7.228326e-26)
(-8.373898e-06 -1.510366e-05 6.430884e-30)
(-7.800391e-06 -1.174325e-05 -1.150381e-26)
(-5.135528e-06 -1.390388e-05 -3.474534e-28)
(-5.551795e-06 -1.234979e-05 7.48765e-30)
(-3.177871e-06 -1.191753e-05 -9.456298e-28)
(-3.71845e-06 -1.135521e-05 1.241755e-29)
(-2.090502e-06 -9.900491e-06 5.797423e-30)
(-2.546801e-06 -9.828079e-06 -2.170822e-29)
(-1.470534e-06 -8.05595e-06 -3.316259e-35)
(-1.823429e-06 -8.243622e-06 0)
(-1.368701e-06 -6.713638e-06 5.804031e-31)
(-1.09928e-06 -6.387753e-06 5.835249e-30)
(-4.379324e-06 -5.952151e-06 3.514837e-31)
(-2.411058e-06 -2.92274e-06 -2.680639e-31)
(-4.991184e-06 -8.965506e-06 1.649235e-30)
(-4.071601e-06 -6.475606e-06 -5.993949e-27)
(-4.121603e-06 -9.766301e-06 1.124764e-28)
(-3.918909e-06 -8.155019e-06 -1.320731e-27)
(-3.086394e-06 -9.253132e-06 7.460022e-31)
(-3.20409e-06 -8.394403e-06 8.281372e-28)
(-2.279758e-06 -8.171236e-06 6.681311e-34)
(-2.495154e-06 -7.815958e-06 -6.942669e-30)
(-1.721598e-06 -6.901375e-06 -1.724183e-34)
(-1.940893e-06 -6.847959e-06 -1.254103e-35)
(-1.538387e-06 -5.72543e-06 5.837716e-30)
(-1.341603e-06 -5.589097e-06 -5.839103e-30)
(-2.1016e-06 -3.443112e-06 -1.28041e-28)
(-9.807202e-07 -1.705079e-06 -1.476182e-31)
(-3.000317e-06 -5.651579e-06 -1.956478e-28)
(-2.229391e-06 -3.95226e-06 8.117681e-32)
(-2.996359e-06 -6.774008e-06 4.391997e-31)
(-2.618785e-06 -5.454975e-06 6.61897e-32)
(-2.60993e-06 -6.94023e-06 -9.01421e-29)
(-2.498074e-06 -6.063804e-06 -1.155581e-28)
(-2.155693e-06 -6.485663e-06 -1.205122e-28)
(-2.192378e-06 -6.005679e-06 -2.841258e-28)
(-1.757676e-06 -5.672027e-06 -1.259067e-28)
(-1.859211e-06 -5.49017e-06 -5.849823e-30)
(-1.566314e-06 -4.692244e-06 -9.353404e-30)
(-1.445008e-06 -4.678368e-06 5.837876e-30)
(-1.10757e-06 -2.212424e-06 3.704681e-31)
(-4.626602e-07 -1.159954e-06 0)
(-1.844729e-06 -3.743526e-06 1.300081e-28)
(-1.283117e-06 -2.595887e-06 6.674634e-31)
(-2.119887e-06 -4.746922e-06 -1.807975e-28)
(-1.744155e-06 -3.749195e-06 -6.027074e-30)
(-2.079285e-06 -5.123056e-06 9.780211e-29)
(-1.881228e-06 -4.375827e-06 -5.621782e-30)
(-1.894424e-06 -4.999835e-06 -5.135024e-30)
(-1.824919e-06 -4.509758e-06 -9.992036e-29)
(-1.667428e-06 -4.505909e-06 -1.381924e-29)
(-1.681129e-06 -4.260846e-06 -5.197936e-30)
(-1.508275e-06 -3.709013e-06 -1.179472e-29)
(-1.44979e-06 -3.759659e-06 1.580464e-28)
(-6.376334e-07 -1.542346e-06 2.966466e-31)
(-2.494213e-07 -8.736109e-07 -4.803922e-31)
(-1.1792e-06 -2.593081e-06 -5.32989e-30)
(-7.849085e-07 -1.809699e-06 -1.047268e-27)
(-1.504141e-06 -3.375551e-06 -1.122322e-27)
(-1.186989e-06 -2.644982e-06 -5.777838e-28)
(-1.625989e-06 -3.760503e-06 -4.864955e-30)
(-1.414144e-06 -3.166994e-06 -6.000032e-30)
(-1.611002e-06 -3.766697e-06 4.912988e-29)
(-1.49566e-06 -3.343683e-06 1.85425e-30)
(-1.521149e-06 -3.457058e-06 7.445452e-31)
(-1.479845e-06 -3.203753e-06 1.489203e-30)
(-1.410495e-06 -2.80505e-06 7.39659e-31)
(-1.398995e-06 -2.892527e-06 -3.265145e-34)
(-3.964317e-07 -1.140462e-06 -1.902327e-31)
(-1.483791e-07 -7.024357e-07 1.829258e-27)
(-7.920425e-07 -1.860026e-06 6.017437e-31)
(-5.108319e-07 -1.31714e-06 -3.063458e-31)
(-1.09626e-06 -2.434917e-06 3.146185e-31)
(-8.40763e-07 -1.909786e-06 7.468316e-31)
(-1.28452e-06 -2.751592e-06 7.502755e-31)
(-1.086988e-06 -2.300947e-06 7.545862e-31)
(-1.364527e-06 -2.780753e-06 1.490727e-30)
(-1.23557e-06 -2.443546e-06 -4.297751e-28)
(-1.368897e-06 -2.549098e-06 2.163706e-29)
(-1.300787e-06 -2.334161e-06 1.492181e-30)
(-1.306758e-06 -2.00016e-06 7.44773e-31)
(-1.325779e-06 -2.095442e-06 -5.16318e-30)
(-2.626103e-07 -8.788067e-07 -5.802125e-31)
(-9.431754e-08 -5.897402e-07 -1.559384e-27)
(-5.592274e-07 -1.366318e-06 -1.620529e-31)
(-3.52427e-07 -9.856423e-07 1.606083e-27)
(-8.289166e-07 -1.771722e-06 7.913137e-29)
(-6.234786e-07 -1.395791e-06 5.914393e-28)
(-1.039104e-06 -1.993904e-06 2.952545e-30)
(-8.638822e-07 -1.662182e-06 1.680123e-30)
(-1.171873e-06 -1.996929e-06 4.09244e-29)
(-1.044797e-06 -1.742622e-06 -5.89009e-28)
(-1.23865e-06 -1.785353e-06 7.466608e-31)
(-1.160251e-06 -1.621644e-06 7.464306e-31)
(-1.219842e-06 -1.308351e-06 0)
(-1.254749e-06 -1.379696e-06 -3.725674e-31)
(-1.839963e-07 -6.963403e-07 -1.056233e-31)
(-6.268557e-08 -5.098044e-07 4.609561e-31)
(-4.164074e-07 -1.014736e-06 -8.593422e-31)
(-2.572464e-07 -7.481411e-07 -5.66848e-31)
(-6.55765e-07 -1.283263e-06 6.198758e-31)
(-4.870663e-07 -1.018154e-06 -8.775368e-31)
(-8.708871e-07 -1.411467e-06 8.991908e-31)
(-7.168822e-07 -1.175649e-06 -9.799816e-28)
(-1.033235e-06 -1.367304e-06 -1.940335e-32)
(-9.139732e-07 -1.186665e-06 7.564567e-28)
(-1.141427e-06 -1.144765e-06 0)
(-1.061485e-06 -1.032938e-06 0)
(-1.159362e-06 -7.137611e-07 0)
(-1.201047e-06 -7.520237e-07 1.138282e-30)
(-1.358155e-07 -5.614154e-07 0)
(-4.290168e-08 -4.496225e-07 0)
(-3.276581e-07 -7.5132e-07 -5.848086e-31)
(-1.984469e-07 -5.683713e-07 5.480887e-31)
(-5.455545e-07 -9.087367e-07 2.832999e-31)
(-4.020101e-07 -7.274873e-07 1.380807e-27)
(-7.614184e-07 -9.509203e-07 8.98917e-31)
(-6.242371e-07 -7.918141e-07 -7.638369e-31)
(-9.422912e-07 -8.522463e-07 2.013596e-32)
(-8.317515e-07 -7.346091e-07 -9.278392e-28)
(-1.079388e-06 -6.020566e-07 0)
(-1.001841e-06 -5.385466e-07 0)
(-1.128361e-06 -1.97975e-07 8.220903e-31)
(-1.171696e-06 -2.016862e-07 3.570666e-31)
(-1.0542e-07 -4.564125e-07 5.478607e-31)
(-2.990193e-08 -4.018246e-07 0)
(-2.72561e-07 -5.444044e-07 9.115968e-33)
(-1.615725e-07 -4.252777e-07 -1.692557e-27)
(-4.780829e-07 -6.098084e-07 -2.175952e-30)
(-3.504892e-07 -4.936108e-07 -1.285726e-30)
(-6.961204e-07 -5.750664e-07 -1.671021e-29)
(-5.706134e-07 -4.77667e-07 1.290343e-27)
(-8.91371e-07 -4.208335e-07 -1.048799e-31)
(-7.881185e-07 -3.562652e-07 5.353928e-31)
(-1.050764e-06 -1.345924e-07 8.218073e-31)
(-9.767165e-07 -1.142422e-07 -6.356252e-31)
(-1.126576e-06 2.56419e-07 7.582717e-28)
(-1.169003e-06 2.859318e-07 -2.545542e-29)
(-8.594348e-08 -3.705418e-07 -2.468319e-31)
(-2.094845e-08 -3.619258e-07 3.946316e-31)
(-2.392641e-07 -3.744418e-07 1.710657e-30)
(-1.385572e-07 -3.059452e-07 -2.468722e-31)
(-4.403684e-07 -3.616564e-07 -1.585003e-30)
(-3.215768e-07 -2.972937e-07 -1.491986e-30)
(-6.642624e-07 -2.5793e-07 -1.883248e-31)
(-5.453977e-07 -2.108441e-07 -1.599389e-30)
(-8.735346e-07 -4.957417e-08 3.911019e-33)
(-7.750713e-07 -2.969261e-08 -1.339244e-27)
(-1.052462e-06 2.766288e-07 -6.161298e-31)
(-9.813505e-07 2.59185e-07 1.071275e-27)
(-1.152325e-06 6.647079e-07 -9.046445e-28)
(-1.193008e-06 7.248263e-07 1.951201e-32)
(-7.344848e-08 -2.97191e-07 3.947077e-31)
(-1.445205e-08 -3.271369e-07 -1.657554e-27)
(-2.206269e-07 -2.288336e-07 -7.454683e-31)
(-1.246159e-07 -2.020885e-07 0)
(-4.238784e-07 -1.475096e-07 -3.821349e-30)
(-3.081049e-07 -1.257298e-07 -2.237077e-30)
(-6.578896e-07 1.878736e-08 4.664688e-31)
(-5.390466e-07 2.394882e-08 9.332889e-30)
(-8.830036e-07 2.792979e-07 6.249528e-31)
(-7.835671e-07 2.604424e-07 -1.886078e-27)
(-1.081132e-06 6.471113e-07 2.292075e-32)
(-1.011007e-06 5.967877e-07 -5.844082e-31)
(-1.20347e-06 1.039887e-06 1.006323e-32)
(-1.242683e-06 1.127511e-06 -1.550977e-30)
(-6.54997e-08 -2.319018e-07 3.370217e-31)
(-9.453723e-09 -2.955582e-07 3.368664e-31)
(-2.118584e-07 -9.90731e-08 -1.489851e-30)
(-1.16918e-07 -1.080529e-07 3.793299e-31)
(-4.20933e-07 4.444879e-08 7.508468e-30)
(-3.06549e-07 2.999188e-08 -1.490231e-30)
(-6.651021e-07 2.66698e-07 -1.748519e-28)
(-5.499874e-07 2.38307e-07 1.516892e-27)
(-9.124888e-07 5.800243e-07 1.266967e-29)
(-8.131722e-07 5.275994e-07 1.427599e-29)
(-1.133311e-06 9.89587e-07 -5.973483e-31)
(-1.063634e-06 9.105362e-07 1.515126e-30)
(-1.278426e-06 1.392837e-06 1.231525e-27)
(-1.316655e-06 1.504923e-06 -1.205456e-30)
(-6.074391e-08 -1.715799e-07 3.791467e-31)
(-5.285245e-09 -2.658315e-07 0)
(-2.114113e-07 2.087536e-08 3.794064e-31)
(-1.134783e-07 -1.978367e-08 -2.446961e-27)
(-4.3435e-07 2.224007e-07 1.090176e-30)
(-3.13966e-07 1.762563e-07 -7.445181e-31)
(-6.954406e-07 4.957111e-07 -4.093747e-29)
(-5.759972e-07 4.390216e-07 3.40233e-31)
(-9.664816e-07 8.613538e-07 3.04702e-30)
(-8.625786e-07 7.796442e-07 1.532129e-30)
(-1.208802e-06 1.313969e-06 -7.04864e-29)
(-1.137245e-06 1.209931e-06 1.514467e-30)
(-1.375714e-06 1.732787e-06 9.702191e-31)
(-1.41414e-06 1.86649e-06 2.481959e-30)
(-5.787937e-08 -1.139056e-07 6.01722e-31)
(-1.505521e-09 -2.369655e-07 4.919915e-31)
(-2.158483e-07 1.35466e-07 -1.419769e-31)
(-1.12879e-07 6.573093e-08 -2.745732e-27)
(-4.55137e-07 3.924238e-07 2.251302e-29)
(-3.276468e-07 3.180084e-07 -2.234219e-30)
(-7.3866e-07 7.176439e-07 -7.62532e-31)
(-6.119717e-07 6.34508e-07 -1.502288e-30)
(-1.036349e-06 1.132973e-06 0)
(-9.260838e-07 1.026018e-06 0)
(-1.304267e-06 1.629061e-06 0)
(-1.229079e-06 1.503106e-06 -1.065839e-30)
(-1.493847e-06 2.067663e-06 -3.036166e-30)
(-1.533762e-06 2.220544e-06 -1.515077e-30)
(-5.634998e-08 -5.719788e-08 8.000602e-29)
(2.133272e-09 -2.081741e-07 -2.564261e-27)
(-2.244728e-07 2.481112e-07 3.823238e-29)
(-1.144537e-07 1.508795e-07 -3.810462e-31)
(-4.84015e-07 5.59637e-07 3.094837e-29)
(-3.469474e-07 4.591783e-07 -3.726051e-30)
(-7.942621e-07 9.365431e-07 -7.63743e-31)
(-6.578467e-07 8.293863e-07 -2.257021e-30)
(-1.122249e-06 1.401616e-06 -1.078229e-30)
(-1.003466e-06 1.271972e-06 0)
(-1.418786e-06 1.942059e-06 1.15932e-28)
(-1.338314e-06 1.79641e-06 -2.262753e-27)
(-1.632024e-06 2.404249e-06 -4.557693e-30)
(-1.674745e-06 2.574277e-06 1.318178e-28)
(-5.579748e-08 3.742009e-11 8.812898e-29)
(5.769595e-09 -1.787406e-07 4.354064e-31)
(-2.366986e-07 3.617491e-07 4.524858e-29)
(-1.178696e-07 2.377902e-07 -3.513319e-27)
(-5.202582e-07 7.283854e-07 8.239273e-29)
(-3.714684e-07 6.032539e-07 -2.177165e-30)
(-8.61341e-07 1.157575e-06 -1.529583e-30)
(-7.127801e-07 1.028278e-06 -1.505108e-30)
(-1.223259e-06 1.672699e-06 3.713071e-31)
(-1.090888e-06 1.521542e-06 1.227779e-29)
(-1.551808e-06 2.259223e-06 -1.158171e-30)
(-1.460273e-06 2.093091e-06 1.578043e-29)
(-1.789286e-06 2.748432e-06 1.541735e-30)
(-1.836571e-06 2.933983e-06 1.576942e-28)
(-5.610811e-08 5.915073e-08 1.046856e-31)
(9.437811e-09 -1.47944e-07 -3.312121e-27)
(-2.523802e-07 4.790619e-07 1.222464e-31)
(-1.232411e-07 3.285706e-07 -3.986171e-27)
(-5.634671e-07 9.025988e-07 5.863337e-32)
(-4.017383e-07 7.536106e-07 -3.715856e-27)
(-9.372409e-07 1.385825e-06 1.216649e-29)
(-7.785109e-07 1.235691e-06 1.484677e-30)
(-1.32945e-06 1.944908e-06 -1.17756e-27)
(-1.194104e-06 1.780864e-06 1.374706e-29)
(-1.699997e-06 2.586988e-06 -4.299904e-28)
(-1.602292e-06 2.401798e-06 1.619492e-29)
(-1.96812e-06 3.106451e-06 1.199239e-30)
(-2.018634e-06 3.305638e-06 3.063742e-30)
(-5.747597e-08 1.216198e-07 -1.076463e-28)
(1.302451e-08 -1.150434e-07 -3.771341e-31)
(-2.72308e-07 6.028442e-07 -6.614917e-29)
(-1.311039e-07 4.254419e-07 -4.560423e-27)
(-6.163396e-07 1.086209e-06 2.088486e-30)
(-4.387463e-07 9.138632e-07 -4.285161e-27)
(-1.032259e-06 1.626284e-06 -1.436296e-28)
(-8.564702e-07 1.456331e-06 -3.931036e-27)
(-1.461399e-06 2.229037e-06 2.247995e-30)
(-1.316112e-06 2.055426e-06 1.52351e-30)
(-1.874776e-06 2.929699e-06 -1.196657e-30)
(-1.768074e-06 2.729344e-06 -2.915725e-27)
(-2.171138e-06 3.485364e-06 2.514042e-27)
(-2.224724e-06 3.695012e-06 2.19359e-28)
(-6.035428e-08 1.889303e-07 4.973143e-31)
(1.620039e-08 -7.920344e-08 3.0313e-31)
(-2.972106e-07 7.361416e-07 -7.742134e-29)
(-1.425115e-07 5.309171e-07 4.97387e-31)
(-6.784859e-07 1.283589e-06 2.152075e-31)
(-4.842274e-07 1.088157e-06 5.282294e-31)
(-1.139235e-06 1.884096e-06 -3.14017e-31)
(-9.482938e-07 1.69607e-06 -4.489823e-27)
(-1.613494e-06 2.541909e-06 5.685356e-31)
(-1.457287e-06 2.355921e-06 1.700701e-30)
(-2.070623e-06 3.296675e-06 6.033498e-31)
(-1.957053e-06 3.086297e-06 5.805833e-31)
(-2.40087e-06 3.894265e-06 -3.121669e-27)
(-2.45523e-06 4.109787e-06 3.432525e-30)
(-6.567211e-08 2.629414e-07 3.031847e-31)
(1.83942e-08 -3.933493e-08 4.984056e-27)
(-3.291485e-07 8.825581e-07 0)
(-1.594004e-07 6.481422e-07 0)
(-7.535926e-07 1.500183e-06 1.475132e-30)
(-5.416145e-07 1.281646e-06 0)
(-1.265294e-06 2.166604e-06 -2.258635e-28)
(-1.059154e-06 1.962031e-06 5.190506e-27)
(-1.79024e-06 2.884864e-06 1.735641e-30)
(-1.62391e-06 2.689183e-06 4.731655e-27)
(-2.294131e-06 3.6964e-06 1.232534e-31)
(-2.171747e-06 3.478624e-06 -1.508237e-31)
(-2.658776e-06 4.340971e-06 1.224544e-31)
(-2.715784e-06 4.561188e-06 -2.781971e-30)
(-7.500729e-08 3.460333e-07 9.434088e-31)
(1.86589e-08 5.908258e-09 5.721435e-27)
(-3.714299e-07 1.046795e-06 0)
(-1.848409e-07 7.811572e-07 7.441704e-31)
(-8.466678e-07 1.742969e-06 -1.035629e-30)
(-6.161337e-07 1.501069e-06 1.465356e-30)
(-1.416722e-06 2.483355e-06 2.595215e-28)
(-1.196543e-06 2.263625e-06 4.83395e-31)
(-1.996032e-06 3.269594e-06 -9.937082e-31)
(-1.826455e-06 3.067392e-06 4.782411e-27)
(-2.540074e-06 4.129902e-06 -1.517694e-31)
(-2.430923e-06 3.924019e-06 -2.782501e-27)
(-2.967655e-06 4.850248e-06 0)
(-3.012841e-06 5.067736e-06 -1.945838e-31)
(-9.079744e-08 4.412072e-07 1.409483e-30)
(1.559259e-08 5.824066e-08 6.653858e-31)
(-4.290406e-07 1.234921e-06 -1.242137e-28)
(-2.231553e-07 9.350648e-07 -2.719225e-31)
(-9.654294e-07 2.021117e-06 2.983648e-30)
(-7.149302e-07 1.754999e-06 7.421922e-27)
(-1.605379e-06 2.846546e-06 -3.328164e-28)
(-1.370023e-06 2.612969e-06 1.518222e-30)
(-2.254956e-06 3.712414e-06 1.238512e-30)
(-2.07649e-06 3.505964e-06 -6.126868e-27)
(-2.848752e-06 4.627778e-06 -3.42997e-31)
(-2.748318e-06 4.440492e-06 5.943551e-30)
(-3.3439e-06 5.445498e-06 3.259055e-30)
(-3.374583e-06 5.650549e-06 -3.300227e-30)
(-1.163276e-07 5.522833e-07 -1.015079e-30)
(7.176069e-09 1.198125e-07 -1.074855e-30)
(-5.084592e-07 1.454547e-06 -3.006203e-32)
(-2.803698e-07 1.116225e-06 -9.085523e-27)
(-1.118849e-06 2.346141e-06 9.867088e-31)
(-8.475934e-07 2.054099e-06 2.199248e-30)
(-1.84038e-06 3.271508e-06 2.333447e-30)
(-1.591946e-06 3.025149e-06 0)
(-2.56776e-06 4.231162e-06 -8.209352e-28)
(-2.387839e-06 4.025088e-06 -7.675674e-31)
(-3.22793e-06 5.232045e-06 -1.007507e-27)
(-3.139638e-06 5.060196e-06 6.269068e-30)
(-3.80424e-06 6.161194e-06 6.546793e-30)
(-3.809517e-06 6.339999e-06 -7.354285e-32)
(-1.563523e-07 6.839381e-07 -2.419664e-30)
(-9.431967e-09 1.932335e-07 -8.523449e-27)
(-6.188232e-07 1.715084e-06 -1.333283e-31)
(-3.646405e-07 1.332309e-06 -2.96515e-30)
(-1.319903e-06 2.732277e-06 1.213482e-30)
(-1.026987e-06 2.411342e-06 9.811086e-27)
(-2.138539e-06 3.777723e-06 -3.098587e-30)
(-1.87878e-06 3.518451e-06 0)
(-2.957716e-06 4.851423e-06 9.785449e-28)
(-2.779917e-06 4.648386e-06 -3.09903e-30)
(-3.698077e-06 5.95977e-06 -1.169299e-27)
(-3.625804e-06 5.807838e-06 -9.653958e-31)
(-4.367817e-06 7.023734e-06 -2.227163e-29)
(-4.347458e-06 7.171482e-06 3.30254e-30)
(-2.170506e-07 8.415892e-07 -3.004727e-30)
(-3.822015e-08 2.815491e-07 -3.645363e-30)
(-7.720848e-07 2.027889e-06 -5.263875e-32)
(-4.868765e-07 1.592397e-06 -1.221595e-26)
(-1.584942e-06 3.196541e-06 1.568756e-30)
(-1.269371e-06 2.84198e-06 1.567527e-30)
(-2.519144e-06 4.387935e-06 0)
(-2.250052e-06 4.114273e-06 -1.403943e-30)
(-3.446007e-06 5.60215e-06 -9.634378e-31)
(-3.273578e-06 5.402806e-06 -3.148206e-30)
(-4.279817e-06 6.846064e-06 -2.616605e-29)
(-4.22894e-06 6.714976e-06 -6.488473e-27)
(-5.07098e-06 8.078536e-06 4.860786e-28)
(-5.003303e-06 8.167062e-06 9.281216e-27)
(-3.069971e-07 1.031603e-06 -5.276879e-28)
(-8.320292e-08 3.877757e-07 -1.018039e-26)
(-9.835163e-07 2.406005e-06 -2.801783e-30)
(-6.585487e-07 1.904951e-06 -2.808757e-30)
(-1.93341e-06 3.758582e-06 -1.402795e-30)
(-1.593842e-06 3.363421e-06 -3.80564e-30)
(-3.003301e-06 5.127752e-06 1.246773e-27)
(-2.727509e-06 4.837595e-06 1.227945e-26)
(-4.054648e-06 6.513048e-06 -2.431205e-30)
(-3.888497e-06 6.319197e-06 -4.957775e-30)
(-5.006666e-06 7.926048e-06 -1.598666e-27)
(-4.960956e-06 7.813746e-06 -1.036677e-26)
(-5.902114e-06 9.340292e-06 -9.277761e-27)
(-5.829784e-06 9.37834e-06 -6.171535e-27)
(-4.320125e-07 1.256311e-06 -2.087778e-30)
(-1.508562e-07 5.135939e-07 -2.06877e-30)
(-1.269769e-06 2.864421e-06 -3.815125e-30)
(-8.98372e-07 2.281955e-06 0)
(-2.386991e-06 4.441543e-06 6.220911e-28)
(-2.023937e-06 3.995719e-06 -1.550689e-26)
(-3.611309e-06 6.027428e-06 -1.246195e-30)
(-3.335169e-06 5.718081e-06 5.638662e-31)
(-4.793277e-06 7.617881e-06 -4.863119e-30)
(-4.64369e-06 7.436316e-06 -1.330755e-26)
(-5.8523e-06 9.22152e-06 -4.200929e-30)
(-5.830396e-06 9.150849e-06 -1.245909e-26)
(-6.859458e-06 1.087349e-05 2.917482e-31)
(-6.763699e-06 1.084056e-05 -1.554196e-30)
(-6.096221e-07 1.524254e-06 0)
(-2.488087e-07 6.636048e-07 -4.225062e-30)
(-1.654819e-06 3.417422e-06 -5.55539e-30)
(-1.22301e-06 2.731886e-06 2.213646e-30)
(-2.971693e-06 5.272119e-06 -5.534565e-30)
(-2.578589e-06 4.754861e-06 -1.925968e-26)
(-4.365956e-06 7.125137e-06 -4.457709e-30)
(-4.095517e-06 6.78938e-06 0)
(-5.679068e-06 8.966997e-06 -6.354059e-30)
(-5.554599e-06 8.802424e-06 -1.529337e-26)
(-6.834355e-06 1.079776e-05 -4.64235e-31)
(-6.843355e-06 1.07896e-05 -1.891658e-30)
(-7.946646e-06 1.275299e-05 1.086596e-26)
(-7.816484e-06 1.260273e-05 1.454607e-30)
(-8.528516e-07 1.853636e-06 -1.663313e-27)
(-3.865147e-07 8.44211e-07 -1.452168e-26)
(-2.14535e-06 4.067753e-06 4.794616e-30)
(-1.656768e-06 3.268183e-06 1.575115e-26)
(-3.70797e-06 6.280245e-06 2.566553e-30)
(-3.285359e-06 5.66472e-06 3.416605e-26)
(-5.2837e-06 8.466497e-06 -2.719512e-30)
(-5.017705e-06 8.079393e-06 9.257704e-30)
(-6.716956e-06 1.062242e-05 -2.71887e-30)
(-6.619141e-06 1.046987e-05 -2.556704e-30)
(-7.952531e-06 1.273959e-05 -4.915617e-30)
(-7.976292e-06 1.280243e-05 3.369739e-30)
(-9.124758e-06 1.507555e-05 -8.345589e-30)
(-9.012829e-06 1.479471e-05 6.883619e-27)
(-1.182802e-06 2.247535e-06 7.566393e-31)
(-5.756688e-07 1.057309e-06 -3.077084e-30)
(-2.780795e-06 4.842817e-06 1.582561e-29)
(-2.226819e-06 3.905081e-06 5.168846e-30)
(-4.596241e-06 7.465894e-06 2.082715e-29)
(-4.180506e-06 6.751033e-06 1.492742e-26)
(-6.364831e-06 1.010104e-05 -2.38009e-27)
(-6.128969e-06 9.642635e-06 3.986492e-26)
(-7.877345e-06 1.264865e-05 3.530369e-30)
(-7.808513e-06 1.249112e-05 -2.13629e-26)
(-9.146267e-06 1.513454e-05 -2.445374e-27)
(-9.148427e-06 1.525509e-05 1.023753e-29)
(-1.026885e-05 1.793085e-05 1.060157e-29)
(-1.026098e-05 1.752149e-05 8.042496e-27)
(-1.616521e-06 2.712437e-06 9.226991e-28)
(-8.290766e-07 1.306178e-06 -6.050481e-35)
(-3.608753e-06 5.789468e-06 8.773457e-30)
(-2.965869e-06 4.664468e-06 -3.706454e-33)
(-5.677968e-06 8.876872e-06 -1.414084e-27)
(-5.282946e-06 8.041949e-06 1.059134e-29)
(-7.588754e-06 1.206194e-05 3.325575e-27)
(-7.3986e-06 1.149275e-05 -2.033046e-29)
(-9.079797e-06 1.509931e-05 -3.720405e-30)
(-9.032318e-06 1.489355e-05 -4.507466e-29)
(-1.026879e-05 1.804718e-05 -4.71612e-27)
(-1.019485e-05 1.819056e-05 3.601879e-30)
(-1.11292e-05 2.135056e-05 1.400905e-29)
(-1.137151e-05 2.088581e-05 -8.365437e-27)
(-2.175579e-06 3.256898e-06 -1.027095e-27)
(-1.16172e-06 1.595424e-06 -5.711223e-31)
(-4.633725e-06 6.909001e-06 1.795993e-30)
(-3.900738e-06 5.560443e-06 -7.554193e-31)
(-6.966059e-06 1.059823e-05 5.849226e-28)
(-6.61832e-06 9.597443e-06 2.059278e-26)
(-8.857072e-06 1.435183e-05 1.113281e-26)
(-8.821536e-06 1.372514e-05 1.4784e-26)
(-1.016087e-05 1.80248e-05 4.728144e-27)
(-1.019636e-05 1.776961e-05 6.028213e-30)
(-1.105492e-05 2.149596e-05 -3.273002e-30)
(-1.08775e-05 2.161992e-05 3.402618e-26)
(-1.135308e-05 2.528777e-05 0)
(-1.196779e-05 2.484096e-05 -1.836526e-30)
(-2.883512e-06 3.897426e-06 0)
(-1.590024e-06 1.936476e-06 -1.1419e-30)
(-5.879982e-06 8.242376e-06 6.653464e-30)
(-5.054217e-06 6.636601e-06 1.524577e-30)
(-8.443609e-06 1.267382e-05 1.943969e-29)
(-8.175577e-06 1.149045e-05 9.859833e-30)
(-1.013645e-05 1.707919e-05 -4.422693e-28)
(-1.032132e-05 1.641364e-05 1.276785e-29)
(-1.092002e-05 2.139766e-05 -9.202386e-27)
(-1.1199e-05 2.121382e-05 1.396732e-26)
(-1.117897e-05 2.5475e-05 3.358536e-29)
(-1.102961e-05 2.567122e-05 2.515671e-29)
(-1.059718e-05 3.022225e-05 -2.571311e-29)
(-1.160331e-05 2.969964e-05 -4.325828e-30)
(-3.756723e-06 4.673777e-06 -2.499198e-27)
(-2.129257e-06 2.358404e-06 -7.496866e-30)
(-7.345231e-06 9.87909e-06 -1.75157e-27)
(-6.437779e-06 7.988742e-06 3.0604e-30)
(-1.004594e-05 1.521683e-05 3.205916e-30)
(-9.947976e-06 1.387533e-05 -5.518532e-30)
(-1.136261e-05 2.046601e-05 1.318917e-29)
(-1.18865e-05 1.975916e-05 0)
(-1.131045e-05 2.535404e-05 5.178569e-30)
(-1.20104e-05 2.540297e-05 6.753581e-26)
(-1.043334e-05 3.050707e-05 -3.323908e-26)
(-1.057395e-05 3.100912e-05 -9.017939e-29)
(-8.220163e-06 3.842661e-05 -2.800308e-28)
(-9.67382e-06 3.762137e-05 -1.007829e-25)
(-4.805586e-06 5.671017e-06 2.824591e-27)
(-2.790066e-06 2.915953e-06 -2.242161e-26)
(-9.035611e-06 1.197858e-05 -7.169847e-30)
(-8.069175e-06 9.770189e-06 -7.42583e-30)
(-1.178416e-05 1.840963e-05 -8.722277e-30)
(-1.198629e-05 1.693404e-05 -4.729273e-26)
(-1.253016e-05 2.467534e-05 1.778767e-29)
(-1.370259e-05 2.413828e-05 -8.884069e-30)
(-1.130412e-05 3.092436e-05 4.184539e-26)
(-1.28819e-05 3.163565e-05 -9.093176e-30)
(-8.318007e-06 3.909101e-05 -9.355023e-25)
(-9.365362e-06 4.085159e-05 2.444071e-25)
(-3.315778e-06 5.450253e-05 -4.529509e-28)
(-4.591113e-06 5.366106e-05 -6.621184e-25)
(-6.046213e-06 7.009681e-06 3.446185e-27)
(-3.556297e-06 3.65858e-06 -7.481173e-30)
(-1.101549e-05 1.472093e-05 -1.961958e-29)
(-1.00031e-05 1.215669e-05 -7.306944e-26)
(-1.389873e-05 2.265507e-05 -1.953706e-29)
(-1.466923e-05 2.125238e-05 4.697691e-30)
(-1.404782e-05 3.108252e-05 -3.762132e-26)
(-1.647987e-05 3.10951e-05 -2.188975e-30)
(-1.098613e-05 4.134081e-05 -1.024612e-25)
(-1.449784e-05 4.267509e-05 -7.746392e-29)
(-4.56593e-06 5.572554e-05 -5.796477e-25)
(-7.865309e-06 5.806232e-05 -8.761957e-29)
(3.239029e-06 8.053635e-05 -1.963544e-28)
(4.10435e-06 8.170654e-05 -1.690789e-24)
(-7.485082e-06 8.774918e-06 9.149397e-30)
(-4.456463e-06 4.680009e-06 1.333693e-29)
(-1.366203e-05 1.870657e-05 -7.106668e-27)
(-1.273848e-05 1.596424e-05 2.95082e-25)
(-1.724152e-05 2.969451e-05 1.925413e-26)
(-1.898282e-05 2.852721e-05 2.407987e-25)
(-1.691694e-05 4.268123e-05 -4.387419e-29)
(-2.138423e-05 4.298679e-05 7.071625e-29)
(-1.138198e-05 5.934963e-05 -2.03874e-25)
(-1.803433e-05 6.050386e-05 -4.573589e-25)
(-3.834032e-07 8.23029e-05 -3.988475e-29)
(-7.559671e-06 8.353143e-05 -3.117042e-29)
(8.976195e-06 0.0001164227 -1.963788e-28)
(1.369807e-05 0.0001196143 -5.279109e-30)
(-9.635189e-06 1.178209e-05 3.414267e-29)
(-6.019993e-06 6.759813e-06 1.345455e-25)
(-1.805306e-05 2.578757e-05 -6.982126e-26)
(-1.710152e-05 2.285518e-05 1.766304e-29)
(-2.314554e-05 4.192856e-05 6.365721e-29)
(-2.556322e-05 4.035836e-05 -8.286702e-31)
(-2.248443e-05 6.08346e-05 -1.225234e-29)
(-2.858703e-05 5.992394e-05 5.8647e-25)
(-1.420326e-05 8.465604e-05 -3.214272e-25)
(-2.367619e-05 8.355097e-05 4.013936e-29)
(1.525191e-06 0.0001167968 -1.835011e-28)
(-8.982667e-06 0.0001140956 6.082383e-25)
(1.288436e-05 0.0001553158 -7.564185e-29)
(1.984717e-05 0.0001647289 -3.522036e-23)
(-1.339884e-05 1.77251e-05 -1.599437e-26)
(-8.420105e-06 1.07418e-05 -1.23571e-29)
(-2.449593e-05 3.721912e-05 -3.110992e-30)
(-2.237888e-05 3.327227e-05 4.318379e-30)
(-3.104512e-05 5.8468e-05 7.556811e-30)
(-3.26121e-05 5.561821e-05 8.957342e-30)
(-2.978445e-05 8.295154e-05 1.253718e-28)
(-3.569518e-05 7.926041e-05 -9.028616e-26)
(-1.843032e-05 0.0001130811 2.207287e-28)
(-2.866344e-05 0.0001077553 4.388957e-25)
(2.306652e-06 0.0001557248 -3.432662e-23)
(-9.258121e-06 0.0001453624 -6.397183e-24)
(1.830673e-05 0.0001928028 2.904182e-28)
(2.516314e-05 0.0002257484 4.007846e-22)
(-1.737057e-05 2.625567e-05 -2.384218e-29)
(-1.033086e-05 1.625736e-05 4.570775e-26)
(-3.037016e-05 5.139925e-05 1.406186e-26)
(-2.567733e-05 4.545827e-05 7.368024e-30)
(-3.71875e-05 7.604542e-05 -1.847544e-28)
(-3.607192e-05 7.110465e-05 2.736776e-29)
(-3.460179e-05 0.0001043506 -1.331581e-24)
(-3.806682e-05 9.804905e-05 -1.664465e-28)
(-1.941423e-05 0.0001439651 6.946976e-23)
(-2.776626e-05 0.0001312953 3.095404e-28)
(6.197347e-06 0.0002086809 4.092575e-28)
(-2.933146e-06 0.0001744393 8.127043e-28)
(2.965661e-05 0.0002257973 1.495138e-22)
(3.275568e-05 0.0003098036 1.394481e-21)
(-1.862162e-05 3.542892e-05 -4.185994e-29)
(-9.88382e-06 2.191994e-05 -4.186565e-29)
(-3.1366e-05 6.510792e-05 1.84876e-29)
(-2.383525e-05 5.696122e-05 1.850422e-29)
(-3.693903e-05 9.270238e-05 1.934784e-25)
(-3.243049e-05 8.551107e-05 3.964109e-29)
(-3.169103e-05 0.0001268729 2.763258e-28)
(-3.152362e-05 0.0001159628 5.555028e-29)
(-1.128422e-05 0.0001861568 1.617937e-21)
(-1.615619e-05 0.0001545872 4.436895e-23)
(1.869499e-05 0.0002827291 5.432006e-28)
(1.882135e-05 0.0002026344 6.670599e-28)
(5.165319e-05 0.0002538823 -5.754656e-30)
(4.746589e-05 0.000412988 -1.354737e-27)
(-1.504683e-05 4.334692e-05 1.846757e-29)
(-6.603909e-06 2.667904e-05 0)
(-2.490024e-05 7.741751e-05 3.665492e-26)
(-1.58944e-05 6.741565e-05 3.976839e-29)
(-2.71229e-05 0.000109892 4.972384e-29)
(-1.990671e-05 9.980086e-05 -2.314482e-29)
(-1.708365e-05 0.0001631681 1.84722e-22)
(-1.320619e-05 0.0001351627 -1.212802e-28)
(7.747148e-06 0.0002511573 5.924324e-29)
(8.961542e-06 0.0001787743 1.339817e-28)
(4.943329e-05 0.0003722468 1.082981e-28)
(4.659032e-05 0.0002283138 4.82201e-29)
(0.0001026244 0.0002829541 -5.01198e-21)
(7.321397e-05 0.0005316087 -4.837598e-21)
(-7.400991e-06 5.047168e-05 2.103193e-29)
(-1.788231e-06 3.112207e-05 -5.971139e-29)
(-1.082814e-05 8.991697e-05 -2.910895e-25)
(-3.125301e-06 7.903227e-05 -4.540741e-25)
(-6.225545e-06 0.0001357621 -1.969373e-28)
(1.401506e-06 0.0001174802 -5.616934e-29)
(1.109696e-05 0.0002199957 2.41046e-30)
(1.92535e-05 0.000158749 3.664182e-22)
(4.198384e-05 0.0003381918 1.23435e-28)
(4.885253e-05 0.0002056087 -2.795911e-22)
(8.102817e-05 0.0004834361 -4.528659e-21)
(9.041855e-05 0.0002551144 -4.257543e-22)
(0.0001338415 0.0003042028 -7.736349e-29)
(0.000134739 0.0006574665 -3.505078e-28)
(2.420267e-06 5.942268e-05 1.788696e-26)
(3.557267e-06 3.693396e-05 4.215769e-25)
(8.548534e-06 0.0001101383 -1.998704e-23)
(1.260247e-05 9.486364e-05 6.603297e-24)
(2.302934e-05 0.0001813528 -1.866026e-28)
(2.77175e-05 0.0001410295 -1.057625e-28)
(5.266947e-05 0.0002918926 2.963059e-28)
(5.539219e-05 0.0001881623 -2.971802e-28)
(9.019988e-05 0.0004394253 4.030603e-21)
(0.0001086327 0.0002397494 -1.719083e-21)
(0.0001324674 0.0006106008 4.729927e-28)
(0.0001484905 0.0002859332 5.85284e-28)
(0.0001952424 0.0003320179 -6.284027e-28)
(0.0001660139 0.0008081348 1.422718e-28)
(1.35729e-05 7.264145e-05 8.59041e-25)
(9.501484e-06 4.550074e-05 5.069288e-30)
(3.084146e-05 0.0001468209 -8.965818e-23)
(3.040146e-05 0.0001174598 -1.084001e-28)
(5.6721e-05 0.0002488635 -2.146526e-28)
(5.715411e-05 0.0001732165 9.476187e-23)
(9.587841e-05 0.0003836756 2.697914e-29)
(9.568589e-05 0.000226426 2.173418e-22)
(0.0001550532 0.0005513422 3.186397e-28)
(0.0001492668 0.0002788032 1.043239e-28)
(0.0002114207 0.0007393217 -5.360659e-28)
(0.0002066099 0.0003255752 4.678991e-28)
(0.0003092719 0.0003779026 -2.074668e-28)
(0.0002354122 0.0009660629 -2.442753e-20)
(2.580553e-05 9.465211e-05 4.059218e-29)
(1.641967e-05 5.731325e-05 -7.548811e-24)
(5.460999e-05 0.0002007314 -2.051354e-22)
(4.902005e-05 0.0001475769 -4.772981e-29)
(9.158945e-05 0.0003329439 -1.172255e-21)
(8.707475e-05 0.0002150265 1.639908e-22)
(0.0001410755 0.0004955318 -2.373415e-28)
(0.0001360265 0.000275569 -9.311421e-31)
(0.0002002118 0.0006821295 2.524029e-28)
(0.0001958718 0.0003287528 -3.350909e-29)
(0.0002580146 0.0008853493 1.073289e-20)
(0.0002564101 0.0003714052 -6.490731e-29)
(0.000317653 0.0004081996 -4.556774e-29)
(0.0003316389 0.001116605 -9.930122e-29)
(3.840749e-05 0.0001271571 6.569249e-29)
(2.404665e-05 7.166575e-05 1.264254e-28)
(7.769788e-05 0.0002670902 -1.517324e-28)
(6.666687e-05 0.0001838777 -7.120045e-29)
(0.0001240176 0.0004284009 1.63476e-21)
(0.0001141728 0.000265553 2.596339e-22)
(0.0001801852 0.0006150741 2.965048e-21)
(0.0001692895 0.0003334338 2.510712e-29)
(0.0002416452 0.0008203531 -3.481821e-28)
(0.0002309631 0.0003853854 7.115692e-22)