/*--------------------------------*- C++ -*----------------------------------*\
| =========                 |                                                 |
| \\      /  F ield         | OpenFOAM: The Open Source CFD Toolbox           |
|  \\    /   O peration     | Version:  2206                                  |
|   \\  /    A nd           | Website:  www.openfoam.com                      |
|    \\/     M anipulation  |                                                 |
\*---------------------------------------------------------------------------*/
FoamFile
{
    version     2.0;
    format      ascii;
    arch        "LSB;label=32;scalar=64";
    class       surfaceVectorField;
    location    "1.8";
    object      Ufa_0;
}
// * * * * * * * * * * * * * * * * * * * * * * * * * * * * * * * * * * * * * //

dimensions      [0 1 -1 0 0 0 0];

internalField   nonuniform List<vector> 
26037
(
(2.978594e-06 -6.735087e-05 8.577599e-24)
(-1.411508e-05 -6.437512e-05 7.426658e-28)
(2.458301e-07 -3.64499e-05 2.237817e-25)
(-8.513446e-06 -3.865255e-05 3.883072e-27)
(-1.10986e-07 -2.254689e-05 -2.03915e-29)
(-3.281885e-06 -2.450063e-05 -2.043781e-29)
(-1.677807e-07 -1.561799e-05 -5.806679e-30)
(-1.54145e-06 -1.700712e-05 0)
(-1.936145e-07 -1.185526e-05 2.090974e-27)
(-9.307176e-07 -1.300126e-05 -5.805864e-30)
(-2.077156e-07 -9.190024e-06 -1.168619e-29)
(-6.500232e-07 -1.015072e-05 -7.850845e-30)
(-5.034336e-07 -7.935174e-06 -5.852318e-30)
(-2.126249e-07 -7.100651e-06 9.065187e-28)
(-2.615827e-05 -3.510592e-05 -8.861195e-33)
(-2.314423e-05 -2.4395e-05 1.503922e-31)
(-1.215274e-05 -2.670508e-05 -8.946363e-33)
(-1.402639e-05 -2.351486e-05 1.724827e-31)
(-4.709559e-06 -1.894513e-05 0)
(-6.446057e-06 -1.832115e-05 6.228456e-30)
(-2.304286e-06 -1.439056e-05 1.198373e-34)
(-3.401343e-06 -1.455213e-05 1.162229e-29)
(-1.387099e-06 -1.129699e-05 2.411308e-34)
(-2.079464e-06 -1.174371e-05 2.128857e-29)
(-9.457265e-07 -8.896034e-06 4.948421e-34)
(-1.39901e-06 -9.441003e-06 1.213297e-34)
(-1.018755e-06 -7.498427e-06 -1.870029e-30)
(-7.068814e-07 -6.926053e-06 -5.865845e-30)
(-1.105956e-05 -1.271118e-05 3.329786e-31)
(-7.650727e-06 -6.935927e-06 6.9555e-26)
(-8.354621e-06 -1.508697e-05 6.404453e-30)
(-7.781458e-06 -1.173098e-05 -1.055636e-26)
(-5.128143e-06 -1.389018e-05 -5.893417e-28)
(-5.542841e-06 -1.233816e-05 7.426851e-30)
(-3.176313e-06 -1.190464e-05 -1.012312e-27)
(-3.716017e-06 -1.134341e-05 1.242057e-29)
(-2.091416e-06 -9.887892e-06 5.819398e-30)
(-2.547769e-06 -9.816062e-06 -1.960457e-29)
(-1.472037e-06 -8.043532e-06 -3.33311e-35)
(-1.825572e-06 -8.231326e-06 0)
(-1.370711e-06 -6.701469e-06 1.633956e-30)
(-1.100407e-06 -6.375873e-06 5.868059e-30)
(-4.369338e-06 -5.948239e-06 3.074681e-31)
(-2.403977e-06 -2.920916e-06 -2.352246e-31)
(-4.98256e-06 -8.958341e-06 1.501942e-30)
(-4.063048e-06 -6.47099e-06 -6.009722e-27)
(-4.117655e-06 -9.75663e-06 1.044163e-28)
(-3.914031e-06 -8.147217e-06 -1.411593e-27)
(-3.086489e-06 -9.242245e-06 7.151808e-31)
(-3.203633e-06 -8.384738e-06 7.397753e-28)
(-2.28195e-06 -8.159541e-06 1.666679e-33)
(-2.497514e-06 -7.804957e-06 -6.928292e-30)
(-1.724242e-06 -6.889349e-06 2.468138e-34)
(-1.944292e-06 -6.836101e-06 -1.456433e-35)
(-1.5415e-06 -5.713491e-06 5.868957e-30)
(-1.343678e-06 -5.577435e-06 -5.872382e-30)
(-2.095952e-06 -3.440544e-06 -1.34376e-28)
(-9.76276e-07 -1.703887e-06 -1.476869e-31)
(-2.995478e-06 -5.646361e-06 -1.931488e-28)
(-2.223836e-06 -3.948672e-06 3.20525e-32)
(-2.99499e-06 -6.766231e-06 2.551221e-31)
(-2.616306e-06 -5.448642e-06 -2.909668e-32)
(-2.611742e-06 -6.93048e-06 -7.737432e-29)
(-2.499342e-06 -6.055133e-06 -2.581522e-28)
(-2.159258e-06 -6.474524e-06 7.588742e-30)
(-2.196155e-06 -5.995176e-06 -1.919596e-28)
(-1.761535e-06 -5.660277e-06 -2.437401e-28)
(-1.863907e-06 -5.478541e-06 -5.87934e-30)
(-1.570598e-06 -4.68048e-06 -1.288947e-29)
(-1.448097e-06 -4.666931e-06 5.868698e-30)
(-1.103206e-06 -2.210173e-06 3.710284e-31)
(-4.585828e-07 -1.158823e-06 0)
(-1.841497e-06 -3.738852e-06 1.26764e-28)
(-1.278448e-06 -2.592445e-06 5.946578e-31)
(-2.120047e-06 -4.7397e-06 -1.719711e-28)
(-1.742812e-06 -3.743128e-06 -6.114484e-30)
(-2.082512e-06 -5.11365e-06 8.663619e-29)
(-1.883742e-06 -4.367313e-06 -5.69858e-30)
(-1.899333e-06 -4.988869e-06 -5.161469e-30)
(-1.830049e-06 -4.499282e-06 -2.681247e-28)
(-1.672544e-06 -4.49429e-06 1.327413e-28)
(-1.687175e-06 -4.24923e-06 -5.223826e-30)
(-1.513803e-06 -3.697353e-06 -1.186426e-29)
(-1.453968e-06 -3.748436e-06 2.997067e-28)
(-6.332356e-07 -1.539978e-06 2.233188e-31)
(-2.449103e-07 -8.723591e-07 -3.380606e-31)
(-1.176382e-06 -2.588269e-06 -5.489723e-30)
(-7.800867e-07 -1.805995e-06 -1.290023e-27)
(-1.505136e-06 -3.368202e-06 -1.059508e-27)
(-1.186081e-06 -2.638619e-06 -7.401354e-28)
(-1.630396e-06 -3.750932e-06 -4.945255e-30)
(-1.417625e-06 -3.158162e-06 -6.021816e-30)
(-1.617261e-06 -3.755594e-06 3.441466e-29)
(-1.502132e-06 -3.332894e-06 1.648648e-30)
(-1.527608e-06 -3.445428e-06 7.486406e-31)
(-1.487367e-06 -3.191943e-06 1.497735e-30)
(-1.4174e-06 -2.793415e-06 7.446632e-31)
(-1.404367e-06 -2.881482e-06 -1.7555e-33)
(-3.914761e-07 -1.137824e-06 -1.34856e-31)
(-1.431431e-07 -7.010116e-07 2.309704e-27)
(-7.891008e-07 -1.854787e-06 4.308496e-31)
(-5.053999e-07 -1.313019e-06 -1.894458e-31)
(-1.097789e-06 -2.427101e-06 2.298763e-31)
(-8.399949e-07 -1.902879e-06 7.636469e-31)
(-1.290062e-06 -2.741553e-06 6.019964e-31)
(-1.09137e-06 -2.291536e-06 7.579014e-31)
(-1.372244e-06 -2.769279e-06 1.347998e-30)
(-1.24348e-06 -2.432216e-06 -8.892464e-28)
(-1.376857e-06 -2.53731e-06 3.867997e-30)
(-1.309961e-06 -2.321966e-06 1.501477e-30)
(-1.315241e-06 -1.988427e-06 7.498118e-31)
(-1.332491e-06 -2.084517e-06 -5.2017e-30)
(-2.568741e-07 -8.758481e-07 -3.76384e-31)
(-8.82188e-08 -5.881297e-07 -2.089808e-27)
(-5.5594e-07 -1.360543e-06 1.425364e-31)
(-3.461795e-07 -9.810486e-07 2.256357e-27)
(-8.309217e-07 -1.763261e-06 6.883011e-29)
(-6.227452e-07 -1.388227e-06 9.017707e-28)
(-1.045855e-06 -1.983211e-06 2.611397e-30)
(-8.692113e-07 -1.652036e-06 1.466102e-30)
(-1.18122e-06 -1.984902e-06 2.315748e-29)
(-1.054303e-06 -1.730581e-06 -1.130203e-27)
(-1.248327e-06 -1.773241e-06 7.515151e-31)
(-1.171293e-06 -1.608893e-06 7.512834e-31)
(-1.230125e-06 -1.29636e-06 0)
(-1.262994e-06 -1.36879e-06 -3.113694e-31)
(-1.773584e-07 -6.930394e-07 -6.236306e-32)
(-5.562553e-08 -5.079991e-07 2.676773e-31)
(-4.126793e-07 -1.008369e-06 -5.084143e-31)
(-2.500626e-07 -7.430403e-07 -3.301965e-31)
(-6.582599e-07 -1.274058e-06 5.203874e-31)
(-4.863385e-07 -1.009857e-06 -5.002202e-31)
(-8.789754e-07 -1.399984e-06 6.833574e-31)
(-7.232531e-07 -1.164648e-06 -1.656598e-27)
(-1.044414e-06 -1.354565e-06 -1.952763e-32)
(-9.252641e-07 -1.173762e-06 1.385835e-27)
(-1.153053e-06 -1.132165e-06 0)
(-1.074629e-06 -1.019462e-06 0)
(-1.171684e-06 -7.013431e-07 0)
(-1.211053e-06 -7.409832e-07 1.222999e-30)
(-1.281774e-07 -5.577491e-07 0)
(-3.478025e-08 -4.476084e-07 0)
(-3.234344e-07 -7.443057e-07 -3.218793e-31)
(-1.902232e-07 -5.627197e-07 2.352445e-31)
(-5.485892e-07 -8.986912e-07 3.013705e-31)
(-4.012845e-07 -7.183732e-07 2.212731e-27)
(-7.709974e-07 -9.385123e-07 6.500351e-31)
(-6.317643e-07 -7.798318e-07 -7.313965e-31)
(-9.555195e-07 -8.386351e-07 2.027878e-32)
(-8.450281e-07 -7.206836e-07 -1.655645e-27)
(-1.093202e-06 -5.887959e-07 0)
(-1.017329e-06 -5.241659e-07 0)
(-1.142966e-06 -1.849518e-07 1.053911e-30)
(-1.183692e-06 -1.90346e-07 2.747213e-31)
(-9.667587e-08 -4.523457e-07 2.351467e-31)
(-2.060464e-08 -3.995807e-07 0)
(-2.67789e-07 -5.366714e-07 -2.280554e-33)
(-1.521953e-07 -4.190154e-07 -2.684332e-27)
(-4.817163e-07 -5.988101e-07 -1.590458e-30)
(-3.497648e-07 -4.835765e-07 -9.874e-31)
(-7.073531e-07 -5.615826e-07 5.380987e-30)
(-5.794186e-07 -4.645591e-07 2.180235e-27)
(-9.06875e-07 -4.061724e-07 -3.767494e-31)
(-8.035874e-07 -3.411406e-07 -4.101666e-32)
(-1.067012e-06 -1.204867e-07 1.053548e-30)
(-9.947976e-07 -9.876323e-08 -3.582984e-31)
(-1.143713e-06 2.702366e-07 1.433878e-27)
(-1.183221e-06 2.977431e-07 -8.408335e-29)
(-7.597065e-08 -3.660274e-07 -6.062784e-31)
(-1.034243e-08 -3.594245e-07 6.241567e-32)
(-2.338811e-07 -3.658989e-07 1.44174e-29)
(-1.278951e-07 -2.989954e-07 -6.063776e-31)
(-4.446596e-07 -3.495707e-07 -1.263417e-30)
(-3.20851e-07 -2.862133e-07 -1.499536e-30)
(-6.773144e-07 -2.431996e-07 -1.685987e-31)
(-5.556075e-07 -1.964443e-07 -1.275834e-30)
(-8.915439e-07 -3.36697e-08 -2.281446e-32)
(-7.929333e-07 -1.317894e-08 -2.353665e-27)
(-1.071398e-06 2.91778e-07 -3.385764e-31)
(-1.002279e-06 2.759692e-07 1.936385e-27)
(-1.172255e-06 6.795199e-07 -1.677315e-27)
(-1.209684e-06 7.372887e-07 1.973474e-32)
(-6.210477e-08 -2.921706e-07 6.24277e-32)
(-2.383753e-09 -3.243446e-07 -2.714195e-27)
(-2.145608e-07 -2.193694e-07 -7.49442e-31)
(-1.125181e-07 -1.943579e-07 0)
(-4.288916e-07 -1.341793e-07 1.492378e-29)
(-3.073819e-07 -1.134513e-07 -2.249908e-30)
(-6.729196e-07 3.495056e-08 -2.39177e-31)
(-5.507908e-07 3.982606e-08 9.835637e-30)
(-9.037425e-07 2.966477e-07 2.470788e-31)
(-8.040007e-07 2.785378e-07 -3.256406e-27)
(-1.103015e-06 6.635119e-07 5.650707e-32)
(-1.03504e-06 6.150913e-07 -2.682424e-31)
(-1.226468e-06 1.055904e-06 4.837122e-32)
(-1.262068e-06 1.140811e-06 -1.60788e-30)
(-5.262212e-08 -2.263058e-07 -4.056863e-32)
(4.255126e-09 -2.924366e-07 -4.054994e-32)
(-2.050351e-07 -8.855324e-08 -1.498698e-30)
(-1.032045e-07 -9.943409e-08 -1.450717e-31)
(-4.267669e-07 5.921551e-08 4.048936e-29)
(-3.058281e-07 4.364815e-08 -1.49908e-30)
(-6.822139e-07 2.844787e-07 -6.007197e-28)
(-5.634305e-07 2.559056e-07 2.578158e-27)
(-9.361825e-07 5.990244e-07 1.239185e-29)
(-8.364425e-07 5.475244e-07 1.401399e-29)
(-1.158414e-06 1.007454e-06 -2.764152e-31)
(-1.09108e-06 9.306048e-07 1.535463e-30)
(-1.304799e-06 1.410289e-06 2.234116e-27)
(-1.339017e-06 1.519258e-06 -6.048925e-31)
(-4.613698e-08 -1.653312e-07 -1.450016e-31)
(1.027298e-08 -2.623403e-07 0)
(-2.037278e-07 3.260264e-08 -1.45101e-31)
(-9.792293e-08 -1.016545e-08 -4.111585e-27)
(-4.411133e-07 2.388382e-07 1.58385e-30)
(-3.132023e-07 1.914711e-07 -7.500715e-31)
(-7.148856e-07 5.153854e-07 -9.998924e-29)
(-5.913175e-07 4.585861e-07 8.267743e-31)
(-9.934807e-07 8.822864e-07 3.084768e-30)
(-8.890188e-07 8.016832e-07 1.549508e-30)
(-1.237466e-06 1.333561e-06 -1.550116e-28)
(-1.16847e-06 1.232051e-06 1.534796e-30)
(-1.405808e-06 1.751931e-06 1.35721e-30)
(-1.439782e-06 1.88208e-06 2.89436e-30)
(-4.130182e-08 -1.069282e-07 -5.856925e-31)
(1.614399e-08 -2.330629e-07 -5.62049e-32)
(-2.071309e-07 1.485402e-07 -1.335757e-30)
(-9.520676e-08 7.646073e-08 -4.630628e-27)
(-4.628353e-07 4.107236e-07 4.93451e-29)
(-3.267451e-07 3.349561e-07 -2.252244e-30)
(-7.607366e-07 7.394898e-07 -7.703049e-31)
(-6.293174e-07 6.562724e-07 -1.518524e-30)
(-1.067004e-06 1.156138e-06 0)
(-9.560148e-07 1.050463e-06 0)
(-1.336861e-06 1.650664e-06 0)
(-1.264449e-06 1.527573e-06 -1.614547e-30)
(-1.528021e-06 2.088769e-06 -3.093925e-30)
(-1.563017e-06 2.237632e-06 -1.543362e-30)
(-3.752558e-08 -4.941199e-08 1.228447e-28)
(2.214765e-08 -2.038158e-07 -4.309256e-27)
(-2.145236e-07 2.626792e-07 6.27262e-29)
(-9.435651e-08 1.628398e-07 -1.816517e-30)
(-4.926556e-07 5.800025e-07 6.13655e-29)
(-3.458134e-07 4.780459e-07 -3.759513e-30)
(-8.191823e-07 9.608143e-07 -7.724652e-31)
(-6.773683e-07 8.535918e-07 -2.284876e-30)
(-1.156886e-06 1.427295e-06 -1.633316e-30)
(-1.037201e-06 1.299102e-06 0)
(-1.455668e-06 1.965949e-06 2.243439e-28)
(-1.378167e-06 1.823486e-06 -4.054163e-27)
(-1.670628e-06 2.427569e-06 -4.647852e-30)
(-1.707955e-06 2.593115e-06 2.478383e-28)
(-3.441962e-08 8.716955e-09 1.36171e-28)
(2.845557e-08 -1.738803e-07 -8.850692e-31)
(-2.253116e-07 3.779693e-07 7.283604e-29)
(-9.500826e-08 2.511056e-07 -5.922495e-27)
(-5.298858e-07 7.510402e-07 1.510541e-28)
(-3.700211e-07 6.242416e-07 -3.02299e-30)
(-8.893602e-07 1.184535e-06 -1.549164e-30)
(-7.347018e-07 1.055189e-06 -1.524376e-30)
(-1.262197e-06 1.701152e-06 -2.287161e-31)
(-1.128791e-06 1.551631e-06 1.248668e-29)
(-1.593305e-06 2.285635e-06 -1.783206e-30)
(-1.504906e-06 2.122979e-06 1.549667e-29)
(-1.832641e-06 2.774154e-06 1.582199e-30)
(-1.874067e-06 2.954799e-06 2.879967e-28)
(-3.183642e-08 6.881186e-08 -2.311675e-30)
(3.513999e-08 -1.425357e-07 -5.533252e-27)
(-2.393398e-07 4.971004e-07 -2.418778e-30)
(-9.723472e-08 3.433626e-07 -6.696538e-27)
(-5.74182e-07 9.277865e-07 -7.668075e-31)
(-3.99886e-07 7.769145e-07 -6.299146e-27)
(-9.687428e-07 1.41577e-06 1.237349e-29)
(-8.030909e-07 1.26558e-06 6.26058e-31)
(-1.37299e-06 1.976365e-06 -2.071206e-27)
(-1.236648e-06 1.814246e-06 1.398553e-29)
(-1.746397e-06 2.616059e-06 -7.718163e-28)
(-1.652142e-06 2.434699e-06 1.574933e-29)
(-2.016544e-06 3.134665e-06 1.904492e-30)
(-2.060708e-06 3.328573e-06 3.136611e-30)
(-2.992412e-08 1.323442e-07 -1.725926e-28)
(4.213188e-08 -1.090467e-07 -1.169038e-30)
(-2.573569e-07 6.228514e-07 -1.061687e-28)
(-1.015113e-07 4.418087e-07 -7.620956e-27)
(-6.282192e-07 1.11415e-06 -6.231981e-31)
(-4.363384e-07 9.396222e-07 -7.233339e-27)
(-1.067659e-06 1.659515e-06 -2.413523e-28)
(-8.838772e-07 1.489349e-06 -6.734044e-27)
(-1.510051e-06 2.263767e-06 1.534299e-30)
(-1.363665e-06 2.092215e-06 1.553978e-30)
(-1.926524e-06 2.961556e-06 -1.302442e-30)
(-1.82353e-06 2.765257e-06 -5.252726e-27)
(-2.224844e-06 3.515897e-06 4.694663e-27)
(-2.271651e-06 3.720057e-06 3.896275e-28)
(-2.907667e-08 2.007775e-07 -5.895353e-31)
(4.915048e-08 -7.258769e-08 1.310685e-30)
(-2.800106e-07 7.582038e-07 -1.200927e-28)
(-1.088258e-07 5.489173e-07 -5.896215e-31)
(-6.914573e-07 1.314353e-06 -2.815741e-30)
(-4.810451e-07 1.116418e-06 -5.122594e-31)
(-1.17863e-06 1.920587e-06 -2.307819e-30)
(-9.785765e-07 1.732178e-06 -7.652311e-27)
(-1.667573e-06 2.579798e-06 -2.716008e-31)
(-1.510046e-06 2.395912e-06 2.791478e-30)
(-2.127898e-06 3.331052e-06 -2.397519e-31)
(-2.018257e-06 3.124815e-06 -2.773563e-31)
(-2.459677e-06 3.926341e-06 -5.84678e-27)
(-2.506991e-06 4.136432e-06 2.876354e-30)
(-3.016856e-08 2.759441e-07 1.310922e-30)
(5.567403e-08 -3.208213e-08 8.144497e-27)
(-3.093109e-07 9.066942e-07 0)
(-1.210566e-07 6.677869e-07 0)
(-7.675549e-07 1.533708e-06 1.504789e-30)
(-5.374053e-07 1.312355e-06 0)
(-1.30876e-06 2.206117e-06 -3.544096e-28)
(-1.092352e-06 2.001018e-06 8.779817e-27)
(-1.849816e-06 2.925404e-06 2.848828e-30)
(-1.682017e-06 2.731891e-06 8.179709e-27)
(-2.356703e-06 3.732385e-06 -7.517077e-31)
(-2.238662e-06 3.518872e-06 -1.252202e-30)
(-2.722021e-06 4.373072e-06 -7.468347e-31)
(-2.771776e-06 4.588043e-06 -4.500711e-30)
(-3.472417e-08 3.601911e-07 3.216453e-30)
(6.080483e-08 1.380102e-08 9.256154e-27)
(-3.485237e-07 1.072943e-06 0)
(-1.41222e-07 8.024014e-07 7.527049e-31)
(-8.61506e-07 1.779051e-06 1.956779e-31)
(-6.106159e-07 1.534055e-06 2.984827e-30)
(-1.46436e-06 2.525436e-06 3.989324e-28)
(-1.232666e-06 2.30508e-06 1.753208e-30)
(-2.061182e-06 3.311949e-06 2.765524e-31)
(-1.889986e-06 3.112062e-06 8.231511e-27)
(-2.607513e-06 4.166087e-06 -1.260054e-30)
(-2.503448e-06 3.964834e-06 -5.07755e-27)
(-3.034495e-06 4.880405e-06 0)
(-3.071888e-06 5.092625e-06 6.550153e-31)
(-4.513387e-08 4.56482e-07 2.699247e-30)
(6.318103e-08 6.67616e-08 1.945855e-30)
(-4.02597e-07 1.262927e-06 -1.790165e-28)
(-1.736229e-07 9.578082e-07 -2.028862e-30)
(-9.809877e-07 2.059378e-06 4.541687e-30)
(-7.078323e-07 1.78997e-06 1.211332e-26)
(-1.657196e-06 2.890477e-06 -5.005542e-28)
(-1.409054e-06 2.656247e-06 1.556529e-30)
(-2.325626e-06 3.755463e-06 6.083484e-32)
(-2.145341e-06 3.551434e-06 -1.045603e-26)
(-2.920608e-06 4.662571e-06 -1.603295e-30)
(-2.825936e-06 4.480146e-06 4.972135e-30)
(-3.413301e-06 5.4715e-06 3.41068e-30)
(-3.435646e-06 5.671524e-06 -2.479089e-30)
(-6.466745e-08 5.686051e-07 -2.77942e-30)
(6.079369e-08 1.289401e-07 -2.699808e-30)
(-4.780335e-07 1.484171e-06 -9.989416e-32)
(-2.243545e-07 1.140332e-06 -1.44801e-26)
(-1.134988e-06 2.386021e-06 2.684143e-30)
(-8.388178e-07 2.090692e-06 5.805658e-30)
(-1.896222e-06 3.316198e-06 9.4053e-31)
(-1.634085e-06 3.069484e-06 0)
(-2.643342e-06 4.273117e-06 -1.221686e-27)
(-2.462038e-06 4.070007e-06 -2.281375e-30)
(-3.303117e-06 5.263074e-06 -1.531272e-27)
(-3.221899e-06 5.096763e-06 6.526341e-30)
(-3.875511e-06 6.181279e-06 6.868839e-30)
(-3.871209e-06 6.354666e-06 -9.219223e-32)
(-9.815435e-08 7.012254e-07 -6.032658e-30)
(5.074037e-08 2.029371e-07 -1.330246e-26)
(-5.841916e-07 1.746068e-06 -2.138578e-31)
(-3.018249e-07 1.35763e-06 -7.191507e-30)
(-1.336864e-06 2.773209e-06 3.124048e-30)
(-1.016951e-06 2.449206e-06 1.564508e-26)
(-2.198786e-06 3.822152e-06 -3.219168e-30)
(-1.924993e-06 3.563173e-06 0)
(-3.038355e-06 4.890824e-06 1.416145e-27)
(-2.860525e-06 4.691722e-06 -3.219628e-30)
(-3.7765e-06 5.985635e-06 -1.724673e-27)
(-3.713659e-06 5.840265e-06 -2.726217e-30)
(-4.442408e-06 7.03827e-06 -2.192422e-29)
(-4.409854e-06 7.179615e-06 4.7081e-30)
(-1.520109e-07 8.59746e-07 -7.070338e-30)
(2.884367e-08 2.91772e-07 -7.531266e-30)
(-7.33573e-07 2.059991e-06 -1.400307e-31)
(-4.175086e-07 1.618737e-06 -1.901891e-26)
(-1.603864e-06 3.238071e-06 3.72111e-30)
(-1.259535e-06 2.880775e-06 3.718195e-30)
(-2.585436e-06 4.43142e-06 0)
(-2.30279e-06 4.158874e-06 7.724634e-31)
(-3.533562e-06 5.638378e-06 -2.721013e-30)
(-3.363498e-06 5.443933e-06 -3.299273e-30)
(-4.363893e-06 6.867394e-06 -2.778326e-29)
(-4.325462e-06 6.743048e-06 -1.127827e-26)
(-5.153115e-06 8.08971e-06 1.776633e-27)
(-5.071084e-06 8.173687e-06 1.259687e-26)
(-2.353307e-07 1.050479e-06 -8.554572e-28)
(-9.375784e-09 3.983612e-07 -1.53973e-26)
(-9.425127e-07 2.438931e-06 -5.336005e-30)
(-5.838989e-07 1.931927e-06 -5.349287e-30)
(-1.957064e-06 3.800315e-06 7.718316e-31)
(-1.587486e-06 3.402673e-06 -6.57818e-30)
(-3.079357e-06 5.169839e-06 1.729755e-27)
(-2.791735e-06 4.881585e-06 1.944984e-26)
(-4.15327e-06 6.545854e-06 -6.356084e-30)
(-3.993489e-06 6.357569e-06 -7.529453e-30)
(-5.10119e-06 7.943979e-06 -2.272114e-27)
(-5.071621e-06 7.836674e-06 -1.761879e-26)
(-5.995893e-06 9.34676e-06 -1.684919e-26)
(-5.911341e-06 9.390399e-06 -9.457468e-27)
(-3.548862e-07 1.275493e-06 -4.40339e-30)
(-7.113164e-08 5.242395e-07 -4.3633e-30)
(-1.229499e-06 2.897614e-06 -6.594576e-30)
(-8.21732e-07 2.308814e-06 0)
(-2.420851e-06 4.482912e-06 8.416893e-28)
(-2.027409e-06 4.034587e-06 -2.38883e-26)
(-3.70411e-06 6.067539e-06 -1.143678e-30)
(-3.419879e-06 5.760844e-06 3.082584e-30)
(-4.909966e-06 7.646184e-06 -1.174249e-29)
(-4.774168e-06 7.471571e-06 -2.134237e-26)
(-5.961913e-06 9.232813e-06 -1.069706e-29)
(-5.965036e-06 9.167867e-06 -2.073138e-26)
(-6.97138e-06 1.087219e-05 5.510066e-31)
(-6.856057e-06 1.084724e-05 -6.866487e-30)
(-5.300471e-07 1.543073e-06 0)
(-1.648773e-07 6.737729e-07 -7.103759e-30)
(-1.621769e-06 3.449873e-06 -1.17159e-29)
(-1.150968e-06 2.757249e-06 5.751609e-30)
(-3.025654e-06 5.31223e-06 -1.167198e-29)
(-2.602619e-06 4.791802e-06 -2.925019e-26)
(-4.487935e-06 7.162877e-06 -9.913638e-30)
(-4.215589e-06 6.830041e-06 0)
(-5.827101e-06 8.990784e-06 -1.433605e-29)
(-5.727971e-06 8.834798e-06 -2.422031e-26)
(-6.970951e-06 1.080203e-05 -7.07916e-31)
(-7.019414e-06 1.080177e-05 -4.41199e-30)
(-8.091563e-06 1.274489e-05 1.87559e-26)
(-7.927999e-06 1.260175e-05 3.773404e-30)
(-7.760438e-07 1.870931e-06 -2.645274e-27)
(-3.012999e-07 8.529428e-07 -2.096392e-26)
(-2.129886e-06 4.097499e-06 1.178558e-29)
(-1.600288e-06 3.289818e-06 2.277528e-26)
(-3.798023e-06 6.317576e-06 5.995742e-30)
(-3.347618e-06 5.697303e-06 5.025343e-26)
(-5.454741e-06 8.501597e-06 -5.802337e-30)
(-5.19581e-06 8.116914e-06 1.681745e-29)
(-6.917911e-06 1.064299e-05 -5.800966e-30)
(-6.861554e-06 1.050064e-05 -8.887152e-30)
(-8.136511e-06 1.273921e-05 -2.900447e-30)
(-8.220016e-06 1.281343e-05 3.644268e-30)
(-9.325982e-06 1.506613e-05 -6.64798e-30)
(-9.160177e-06 1.47883e-05 9.474664e-27)
(-1.117441e-06 2.261354e-06 1.514527e-30)
(-4.939925e-07 1.062983e-06 -6.271265e-30)
(-2.800608e-06 4.867186e-06 3.137909e-29)
(-2.201778e-06 3.91959e-06 9.155608e-30)
(-4.746199e-06 7.498527e-06 4.014029e-29)
(-4.307736e-06 6.776191e-06 2.139743e-26)
(-6.614415e-06 1.013395e-05 -3.23293e-27)
(-6.399019e-06 9.676487e-06 6.120148e-26)
(-8.162019e-06 1.266965e-05 5.559904e-31)
(-8.155195e-06 1.252381e-05 -3.403867e-26)
(-9.406719e-06 1.513627e-05 -3.123088e-27)
(-9.492917e-06 1.527304e-05 1.111633e-29)
(-1.05545e-05 1.793294e-05 1.169428e-29)
(-1.046972e-05 1.751868e-05 1.10379e-26)
(-1.574743e-06 2.719628e-06 1.455355e-27)
(-7.575294e-07 1.306237e-06 -4.602138e-34)
(-3.689497e-06 5.804732e-06 1.324161e-29)
(-2.993118e-06 4.666468e-06 -5.336731e-33)
(-5.922237e-06 8.903104e-06 -1.588651e-27)
(-5.508939e-06 8.05563e-06 1.970205e-29)
(-7.956049e-06 1.209539e-05 3.977586e-27)
(-7.801603e-06 1.152331e-05 -9.133608e-30)
(-9.485686e-06 1.512874e-05 -7.562818e-30)
(-9.522881e-06 1.493421e-05 -5.213232e-29)
(-1.063786e-05 1.806528e-05 -5.883052e-27)
(-1.067061e-05 1.822801e-05 7.715791e-30)
(-1.151778e-05 2.138328e-05 1.541721e-29)
(-1.166805e-05 2.090526e-05 -1.132017e-26)
(-2.172604e-06 3.252657e-06 -1.607516e-27)
(-1.10862e-06 1.58614e-06 -5.769185e-31)
(-4.805348e-06 6.909385e-06 6.418296e-30)
(-4.005402e-06 5.542086e-06 -7.78062e-31)
(-7.34744e-06 1.061599e-05 3.347885e-28)
(-6.983487e-06 9.593807e-06 2.871481e-26)
(-9.384306e-06 1.43896e-05 1.170852e-26)
(-9.406302e-06 1.37529e-05 2.129428e-26)
(-1.072143e-05 1.807339e-05 5.97131e-27)
(-1.087018e-05 1.78243e-05 1.127582e-29)
(-1.154946e-05 2.154783e-05 2.344181e-31)
(-1.149471e-05 2.168216e-05 5.930461e-26)
(-1.18246e-05 2.536186e-05 0)
(-1.235261e-05 2.48953e-05 -2.079485e-30)
(-2.937566e-06 3.874995e-06 0)
(-1.565044e-06 1.912531e-06 -1.154769e-30)
(-6.177393e-06 8.219981e-06 1.197189e-29)
(-5.264963e-06 6.587126e-06 1.573319e-30)
(-9.008694e-06 1.268009e-05 3.040279e-29)
(-8.723346e-06 1.146224e-05 1.534708e-29)
(-1.086523e-05 1.712364e-05 8.206305e-28)
(-1.112993e-05 1.643798e-05 1.83957e-29)
(-1.165088e-05 2.146622e-05 -4.404437e-27)
(-1.207889e-05 2.12769e-05 2.740014e-26)
(-1.1771e-05 2.55599e-05 4.140616e-29)
(-1.176488e-05 2.579002e-05 3.166412e-29)
(-1.104306e-05 3.042282e-05 -3.04876e-29)
(-1.20121e-05 2.983236e-05 -1.077612e-29)
(-3.887905e-06 4.623832e-06 -3.811803e-27)
(-2.143226e-06 2.312739e-06 -1.283431e-29)
(-7.805577e-06 9.82379e-06 -1.847051e-27)
(-6.788076e-06 7.896468e-06 3.161473e-30)
(-1.083606e-05 1.520669e-05 3.373432e-30)
(-1.072643e-05 1.381702e-05 -1.188334e-29)
(-1.231906e-05 2.050898e-05 2.503345e-29)
(-1.295266e-05 1.9773e-05 0)
(-1.219494e-05 2.546659e-05 1.610379e-29)
(-1.310468e-05 2.555123e-05 1.276527e-25)
(-1.101159e-05 3.074586e-05 -5.601088e-26)
(-1.133242e-05 3.139547e-05 -9.595841e-29)
(-8.326603e-06 3.905704e-05 -3.341261e-28)
(-9.856208e-06 3.814668e-05 -1.578399e-25)
(-5.038094e-06 5.584147e-06 4.222143e-27)
(-2.856876e-06 2.842186e-06 -2.611697e-26)
(-9.703208e-06 1.188331e-05 -1.364072e-29)
(-8.601128e-06 9.62558e-06 -1.478604e-29)
(-1.283751e-05 1.837563e-05 -1.525652e-29)
(-1.305295e-05 1.684008e-05 -7.285004e-26)
(-1.37319e-05 2.479556e-05 2.762035e-29)
(-1.511264e-05 2.42351e-05 -1.010862e-29)
(-1.227677e-05 3.134588e-05 7.352377e-26)
(-1.424915e-05 3.219198e-05 -4.212756e-30)
(-8.586261e-06 3.988672e-05 -1.468958e-24)
(-1.004654e-05 4.19179e-05 5.052679e-25)
(-2.665163e-06 5.589378e-05 -5.393934e-28)
(-3.982797e-06 5.491282e-05 -9.450916e-25)
(-6.411578e-06 6.87952e-06 5.206946e-27)
(-3.684806e-06 3.542956e-06 -1.331584e-29)
(-1.194534e-05 1.457802e-05 -3.504318e-29)
(-1.079085e-05 1.196489e-05 -1.183508e-25)
(-1.531938e-05 2.269352e-05 -2.877753e-29)
(-1.623351e-05 2.126565e-05 9.315446e-30)
(-1.561806e-05 3.161841e-05 -6.650468e-26)
(-1.857279e-05 3.167402e-05 -2.274288e-30)
(-1.206119e-05 4.253623e-05 -1.617348e-25)
(-1.643491e-05 4.406615e-05 -1.129308e-28)
(-4.351179e-06 5.739095e-05 -8.595919e-25)
(-8.612214e-06 6.009692e-05 -8.386281e-29)
(4.755673e-06 8.28114e-05 -2.330295e-28)
(5.981032e-06 8.382173e-05 -2.357472e-24)
(-8.032125e-06 8.600079e-06 1.874095e-29)
(-4.704812e-06 4.555148e-06 2.212649e-29)
(-1.508279e-05 1.867316e-05 -1.36397e-26)
(-1.408887e-05 1.590778e-05 4.516125e-25)
(-1.947222e-05 3.025236e-05 3.258971e-26)
(-2.163259e-05 2.90228e-05 3.804345e-25)
(-1.93669e-05 4.412203e-05 -7.320734e-29)
(-2.487892e-05 4.445835e-05 1.268745e-28)
(-1.297907e-05 6.159241e-05 -3.021777e-25)
(-2.123773e-05 6.294921e-05 -7.346349e-25)
(1.242533e-07 8.498033e-05 -4.694396e-29)
(-8.938325e-06 8.66424e-05 1.389588e-29)
(1.096138e-05 0.0001197745 -2.127195e-28)
(1.696974e-05 0.0001226934 -3.03483e-28)
(-1.067514e-05 1.177924e-05 7.103208e-29)
(-6.587264e-06 6.739299e-06 2.0104e-25)
(-2.062896e-05 2.626466e-05 -1.146463e-25)
(-1.961991e-05 2.325275e-05 4.541011e-29)
(-2.70617e-05 4.335117e-05 1.356896e-28)
(-3.015535e-05 4.165495e-05 1.592412e-29)
(-2.67221e-05 6.332242e-05 -2.117779e-30)
(-3.435138e-05 6.234616e-05 8.082311e-25)
(-1.717316e-05 8.799006e-05 -4.544218e-25)
(-2.900005e-05 8.693396e-05 9.548819e-29)
(1.597297e-06 0.0001206179 -1.473202e-28)
(-1.178138e-05 0.0001181541 8.929362e-25)
(1.467993e-05 0.0001597735 -6.160357e-29)
(2.39222e-05 0.0001695772 -4.804911e-23)
(-1.542553e-05 1.81064e-05 -2.314626e-26)
(-9.562686e-06 1.095871e-05 -1.940661e-29)
(-2.899975e-05 3.842937e-05 -3.448466e-30)
(-2.657846e-05 3.432414e-05 4.662919e-30)
(-3.749747e-05 6.077684e-05 8.811167e-30)
(-3.967402e-05 5.770685e-05 9.795293e-30)
(-3.664329e-05 8.629393e-05 2.280581e-28)
(-4.418663e-05 8.231871e-05 4.696787e-26)
(-2.357228e-05 0.0001172197 5.797009e-28)
(-3.654058e-05 0.0001115736 4.117131e-25)
(1.204877e-06 0.0001616267 4.67367e-23)
(-1.384837e-05 0.0001499122 -1.087527e-23)
(1.995321e-05 0.0001980838 3.28273e-28)
(2.945873e-05 0.0002381696 -8.827282e-29)
(-2.067853e-05 2.714604e-05 -4.401237e-29)
(-1.211287e-05 1.679032e-05 7.486852e-26)
(-3.709008e-05 5.331899e-05 1.757219e-26)
(-3.150133e-05 4.712589e-05 8.043632e-30)
(-4.625887e-05 7.887499e-05 -2.640951e-28)
(-4.523306e-05 7.363241e-05 2.912716e-29)
(-4.413639e-05 0.0001079048 -1.716889e-24)
(-4.886638e-05 0.0001011415 -2.455111e-28)
(-2.680872e-05 0.0001494176 2.43533e-28)
(-3.776271e-05 0.0001348905 -2.442428e-28)
(3.809074e-06 0.0002220526 3.474942e-28)
(-8.502708e-06 0.0001789666 -5.204284e-28)
(3.217118e-05 0.0002315315 -2.475079e-22)
(3.708072e-05 0.0003399606 -6.059255e-28)
(-2.291662e-05 3.674025e-05 -6.888107e-29)
(-1.200061e-05 2.268555e-05 -6.889046e-29)
(-3.962774e-05 6.738169e-05 1.941869e-29)
(-3.0479e-05 5.891467e-05 1.926037e-29)
(-4.779964e-05 9.54941e-05 2.294231e-25)
(-4.265862e-05 8.801516e-05 4.107993e-29)
(-4.310551e-05 0.0001308914 -2.869538e-28)
(-4.349899e-05 0.000118652 1.365756e-29)
(-1.990458e-05 0.000197422 -2.201365e-21)
(-2.700119e-05 0.0001576432 -1.072237e-28)
(1.593546e-05 0.0003120624 -1.337311e-29)
(1.526618e-05 0.0002073543 2.889437e-28)
(5.671105e-05 0.0002600491 -1.197853e-21)
(5.252863e-05 0.0004700744 -1.4386e-27)
(-1.950105e-05 4.475166e-05 1.922222e-29)
(-8.594637e-06 2.748517e-05 0)
(-3.351865e-05 7.960054e-05 3.532063e-26)
(-2.232862e-05 6.925884e-05 5.91006e-29)
(-3.853331e-05 0.0001127136 7.340764e-30)
(-2.997415e-05 0.0001019465 6.869575e-29)
(-2.908315e-05 0.0001721289 1.891108e-28)
(-2.475776e-05 0.000137345 -7.678189e-29)
(-1.31418e-06 0.0002766969 1.178916e-27)
(-6.709929e-07 0.0001815359 -1.954807e-22)
(4.978425e-05 0.0004248542 1.384992e-20)
(4.401308e-05 0.0002327923 -4.970435e-22)
(0.0001170305 0.0002912223 1.609403e-27)
(7.977067e-05 0.0006227331 -6.582085e-21)
(-1.134778e-05 5.17095e-05 3.949777e-29)
(-3.368324e-06 3.183949e-05 -9.420429e-29)
(-1.874608e-05 9.171773e-05 3.476951e-25)
(-8.671076e-06 8.048986e-05 1.515176e-28)
(-1.684933e-05 0.0001410354 -1.490533e-29)
(-7.446979e-06 0.0001190465 1.081826e-28)
(1.289014e-07 0.0002407041 4.77442e-28)
(1.040697e-05 0.0001606103 -5.976065e-29)
(3.426662e-05 0.0003856214 3.470998e-21)
(4.280725e-05 0.0002084636 -4.557122e-22)
(8.089737e-05 0.0005674505 7.32907e-28)
(9.173168e-05 0.0002600506 -7.194275e-22)
(0.0001466713 0.0003114582 7.316191e-28)
(0.0001514654 0.0007869646 -7.131656e-28)
(-7.528734e-07 6.035907e-05 2.037414e-26)
(2.49255e-06 3.746774e-05 6.15531e-25)
(1.849517e-06 0.0001127483 2.716006e-23)
(8.263942e-06 9.573648e-05 -1.16145e-23)
(1.395728e-05 0.0001943299 4.554033e-22)
(2.077895e-05 0.0001418932 2.408593e-28)
(4.47828e-05 0.0003286741 -1.170628e-28)
(4.874696e-05 0.0001894691 -1.339913e-28)
(8.575832e-05 0.0005133176 1.062504e-28)
(0.0001107784 0.0002437595 2.563263e-21)
(0.0001353132 0.0007311192 9.169742e-28)
(0.0001563274 0.0002917905 2.270474e-27)
(0.0002149538 0.0003403398 -1.828796e-21)
(0.000177519 0.0009837025 1.31748e-20)
(1.12351e-05 7.322195e-05 1.160267e-24)
(8.954407e-06 4.568454e-05 -9.119614e-29)
(2.549223e-05 0.0001535228 1.218755e-22)
(2.743699e-05 0.0001175425 -1.534942e-29)
(4.955825e-05 0.0002745079 4.576033e-29)
(5.261505e-05 0.0001733665 -1.689144e-22)
(9.016467e-05 0.0004411643 -4.327502e-21)
(9.251626e-05 0.0002276484 -1.606693e-28)
(0.0001579219 0.0006538212 1.429031e-20)
(0.0001522026 0.000282664 7.68846e-22)
(0.0002248024 0.0008956415 4.300875e-20)
(0.0002191815 0.0003325631 1.591417e-27)
(0.0003527194 0.0003921872 2.629253e-27)
(0.0002525379 0.001188718 3.616932e-27)
(2.42446e-05 9.588646e-05 -1.313556e-28)
(1.637521e-05 5.694856e-05 1.432921e-29)
(5.066219e-05 0.0002146461 1.550811e-28)
(4.754776e-05 0.0001467928 9.367083e-23)
(8.659387e-05 0.0003740203 2.752621e-28)
(8.529716e-05 0.0002147883 -2.878116e-22)
(0.0001383436 0.000577627 -5.462052e-28)
(0.0001371392 0.0002775373 -5.055848e-29)
(0.0002038508 0.0008168906 -1.009981e-20)
(0.0002040318 0.0003344681 -1.033251e-27)
(0.0002708418 0.001081042 -1.858112e-28)
(0.0002745335 0.000380727 -6.922368e-28)
(0.0003500932 0.0004200939 -2.501508e-21)
(0.0003637913 0.001382928 5.160453e-28)
(3.752494e-05 0.0001308128 -1.622952e-28)
(2.441697e-05 7.064178e-05 -1.703195e-29)
(7.523783e-05 0.0002898414 -1.58208e-28)
(6.668762e-05 0.0001824634 -1.655079e-28)
(0.0001214492 0.0004860851 -2.049456e-29)
(0.0001155147 0.000265757 4.424738e-22)
(0.0001807653 0.0007222665 -5.364935e-28)
(0.0001749203 0.0003374416 1.599734e-28)
(0.0002486643 0.0009886298 -1.256603e-20)