/*--------------------------------*- C++ -*----------------------------------*\
| =========                 |                                                 |
| \\      /  F ield         | OpenFOAM: The Open Source CFD Toolbox           |
|  \\    /   O peration     | Version:  2206                                  |
|   \\  /    A nd           | Website:  www.openfoam.com                      |
|    \\/     M anipulation  |                                                 |
\*---------------------------------------------------------------------------*/
FoamFile
{
    version     2.0;
    format      ascii;
    arch        "LSB;label=32;scalar=64";
    class       surfaceVectorField;
    location    "1.8";
    object      Ufb;
}
// * * * * * * * * * * * * * * * * * * * * * * * * * * * * * * * * * * * * * //

dimensions      [0 1 -1 0 0 0 0];

internalField   nonuniform List<vector> 
26037
(
(-5.118985e-06 5.680538e-05 7.275875e-22)
(2.620912e-05 4.923517e-06 -1.545797e-27)
(-5.511848e-06 2.796427e-05 3.764117e-23)
(3.857517e-06 3.420894e-05 1.684392e-24)
(-5.136606e-06 1.138092e-05 1.10989e-27)
(-1.419393e-06 1.840209e-05 1.112411e-27)
(-5.224181e-06 3.508751e-06 1.788239e-28)
(-4.09783e-06 8.161079e-06 0)
(-5.30793e-06 -9.672546e-07 5.457017e-24)
(-4.598676e-06 1.641017e-06 1.79674e-28)
(-5.410076e-06 -4.407877e-06 1.196506e-28)
(-4.871778e-06 -2.450261e-06 -4.620701e-27)
(-5.078693e-06 -5.699499e-06 2.745643e-29)
(-5.514233e-06 -7.266457e-06 2.185083e-24)
(1.242584e-05 3.778173e-05 -7.94344e-30)
(4.95427e-05 5.185358e-06 1.285999e-27)
(1.444268e-06 2.271359e-05 -8.019787e-30)
(1.664558e-05 2.136002e-05 -6.759305e-28)
(-1.692362e-06 1.079753e-05 0)
(3.86352e-06 1.431229e-05 -3.091244e-28)
(-3.423398e-06 3.813665e-06 8.717984e-31)
(-9.479682e-07 6.816013e-06 -4.541143e-28)
(-4.094777e-06 -7.881668e-07 1.512282e-30)
(-2.737191e-06 1.517184e-06 4.93179e-26)
(-4.505634e-06 -4.31806e-06 2.162683e-30)
(-3.649593e-06 -2.429442e-06 6.407526e-31)
(-4.188319e-06 -5.659474e-06 -2.574269e-27)
(-4.806771e-06 -7.223668e-06 -3.074666e-29)
(2.841385e-05 1.724091e-05 6.147034e-28)
(2.893449e-05 4.621142e-06 9.39199e-23)
(1.053054e-05 1.382606e-05 -9.869153e-28)
(1.461146e-05 1.126113e-05 -2.058459e-23)
(2.305614e-06 8.373728e-06 6.164233e-25)
(6.249846e-06 9.022524e-06 -9.213178e-28)
(-9.511452e-07 3.347338e-06 -2.494229e-24)
(1.649028e-06 5.027741e-06 -6.225205e-28)
(-2.485873e-06 -7.933368e-07 -1.462703e-28)
(-8.134435e-07 1.019856e-06 -8.084745e-26)
(-3.360555e-06 -4.233854e-06 1.002142e-34)
(-2.213903e-06 -2.555192e-06 0)
(-3.101566e-06 -5.677914e-06 1.119661e-27)
(-3.945332e-06 -7.158564e-06 3.366043e-29)
(2.057556e-05 9.01757e-06 -2.671794e-28)
(2.074145e-05 3.280076e-06 7.304938e-28)
(1.098375e-05 9.013523e-06 -1.612079e-27)
(1.358922e-05 6.976038e-06 -1.599057e-23)
(4.824244e-06 6.178414e-06 3.183556e-25)
(7.806296e-06 6.066144e-06 -3.567773e-24)
(1.310701e-06 2.561366e-06 -1.644115e-28)
(3.771603e-06 3.506836e-06 2.427976e-24)
(-7.067359e-07 -1.025642e-06 1.867698e-30)
(1.124305e-06 3.415618e-07 1.985251e-28)
(-1.99124e-06 -4.2795e-06 -4.657533e-31)
(-6.083617e-07 -2.861434e-06 -2.294254e-33)
(-1.81928e-06 -5.838122e-06 9.451547e-30)
(-2.892353e-06 -7.169496e-06 -4.361443e-29)
(1.678586e-05 5.603162e-06 -4.615801e-25)
(1.79086e-05 2.233043e-06 1.708726e-30)
(1.130806e-05 6.130304e-06 -5.37405e-25)
(1.357977e-05 4.61357e-06 -4.037112e-28)
(6.717185e-06 4.346832e-06 -9.37031e-28)
(9.273864e-06 4.056635e-06 -5.720345e-28)
(3.407912e-06 1.577407e-06 -2.579375e-25)
(5.752788e-06 2.095196e-06 -2.347857e-25)
(1.13467e-06 -1.49489e-06 -5.445442e-25)
(3.105536e-06 -5.220039e-07 -9.106823e-25)
(-4.462029e-07 -4.534315e-06 -2.221548e-25)
(1.134676e-06 -3.373493e-06 1.319607e-29)
(-3.643089e-07 -6.207836e-06 -7.883625e-27)
(-1.65712e-06 -7.357787e-06 9.917277e-30)
(1.569885e-05 3.50651e-06 -4.864929e-30)
(1.676115e-05 1.430079e-06 0)
(1.203711e-05 3.945018e-06 3.545368e-25)
(1.398643e-05 2.851433e-06 -3.735265e-28)
(8.420346e-06 2.663429e-06 -5.013545e-25)
(1.071939e-05 2.32535e-06 -2.484066e-28)
(5.426629e-06 4.126672e-07 2.857768e-25)
(7.667087e-06 7.059682e-07 -1.713461e-28)
(3.05495e-06 -2.25812e-06 7.147336e-30)
(5.09171e-06 -1.596962e-06 -1.751817e-25)
(1.211414e-06 -5.049225e-06 -2.049729e-25)
(2.977336e-06 -4.162273e-06 1.498726e-29)
(1.225442e-06 -6.81781e-06 -5.763081e-29)
(-2.639031e-07 -7.784273e-06 3.627242e-25)
(1.556956e-05 2.051293e-06 -3.684656e-28)
(1.657842e-05 8.283726e-07 8.090071e-28)
(1.298061e-05 2.150399e-06 -6.233955e-28)
(1.470098e-05 1.451723e-06 -2.799074e-24)
(1.009719e-05 1.061388e-06 -3.10231e-24)
(1.217962e-05 7.698811e-07 -1.538443e-24)
(7.371451e-06 -8.899301e-07 -1.398185e-28)
(9.549821e-06 -7.259134e-07 4.379618e-29)
(5.012335e-06 -3.291362e-06 1.506035e-25)
(7.068021e-06 -2.829022e-06 -6.174941e-28)
(2.981404e-06 -5.872945e-06 1.607631e-30)
(4.873449e-06 -5.23152e-06 6.413617e-30)
(2.922749e-06 -7.72834e-06 8.933518e-30)
(1.238537e-06 -8.479593e-06 -1.081535e-30)
(1.603944e-05 9.998352e-07 4.325388e-28)
(1.705674e-05 3.677793e-07 6.062351e-24)
(1.411242e-05 6.706544e-07 -7.071133e-28)
(1.570153e-05 3.099004e-07 4.165142e-28)
(1.175389e-05 -4.663784e-07 -3.337174e-28)
(1.369458e-05 -6.327168e-07 2.826713e-29)
(9.276036e-06 -2.301993e-06 -4.378305e-28)
(1.138848e-05 -2.176124e-06 1.734255e-30)
(6.953849e-06 -4.541207e-06 -4.297547e-28)
(9.027855e-06 -4.202208e-06 -9.900484e-25)
(4.826242e-06 -6.988274e-06 7.530226e-26)
(6.795034e-06 -6.506413e-06 1.286086e-29)
(4.695304e-06 -8.936979e-06 8.995285e-30)
(2.859788e-06 -9.48362e-06 -9.764153e-29)
(1.697271e-05 1.923997e-07 7.928757e-28)
(1.805492e-05 -4.11898e-10 -5.092334e-24)
(1.546366e-05 -6.04098e-07 1.151812e-27)
(1.701505e-05 -6.530806e-07 4.153664e-24)
(1.346215e-05 -1.921115e-06 2.191258e-25)
(1.534215e-05 -1.930293e-06 1.498277e-24)
(1.118734e-05 -3.774532e-06 -1.025948e-27)
(1.32737e-05 -3.620863e-06 -6.944492e-28)
(8.909029e-06 -5.959544e-06 1.234646e-25)
(1.101166e-05 -5.68186e-06 -1.396073e-24)
(6.698828e-06 -8.340668e-06 8.054013e-30)
(8.751591e-06 -7.970841e-06 8.05153e-30)
(6.524933e-06 -1.037365e-05 0)
(4.575469e-06 -1.078406e-05 9.615884e-29)
(1.831607e-05 -4.747178e-07 -3.727565e-29)
(1.950862e-05 -3.10822e-07 -8.894617e-28)
(1.706412e-05 -1.732863e-06 1.246436e-27)
(1.865164e-05 -1.502582e-06 8.526687e-28)
(1.529682e-05 -3.315366e-06 -2.907352e-28)
(1.718693e-05 -3.152576e-06 1.263279e-27)
(1.316367e-05 -5.293464e-06 -6.911902e-28)
(1.527317e-05 -5.071145e-06 -2.386829e-24)
(1.091147e-05 -7.518289e-06 -2.212434e-31)
(1.30693e-05 -7.255942e-06 1.817413e-24)
(8.624788e-06 -9.901589e-06 0)
(1.077125e-05 -9.604682e-06 0)
(8.421481e-06 -1.203555e-05 0)
(6.344663e-06 -1.233807e-05 1.7202e-28)
(2.004805e-05 -1.056608e-06 0)
(2.138456e-05 -5.89704e-07 0)
(1.894613e-05 -2.772948e-06 8.69202e-28)
(2.062868e-05 -2.289554e-06 -1.027456e-27)
(1.731855e-05 -4.676582e-06 1.053635e-28)
(1.928048e-05 -4.337498e-06 3.450748e-24)
(1.526339e-05 -6.861398e-06 -7.771185e-28)
(1.744749e-05 -6.544972e-06 8.81585e-29)
(1.300498e-05 -9.206146e-06 3.182219e-31)
(1.525419e-05 -8.926341e-06 -2.2535e-24)
(1.062997e-05 -1.165755e-05 0)
(1.289269e-05 -1.140256e-05 0)
(1.04076e-05 -1.391618e-05 5.961208e-28)
(8.19064e-06 -1.413401e-05 -1.710341e-28)
(2.216631e-05 -1.595439e-06 -1.027028e-27)
(2.367528e-05 -8.547399e-07 0)
(2.114142e-05 -3.772011e-06 -6.043037e-29)
(2.296702e-05 -3.05259e-06 -4.236027e-24)
(1.957925e-05 -6.037841e-06 1.841193e-27)
(2.166749e-05 -5.521816e-06 9.59508e-28)
(1.754205e-05 -8.493648e-06 -6.640687e-26)
(1.985158e-05 -8.06716e-06 3.14218e-24)
(1.523741e-05 -1.102677e-05 -7.980412e-28)
(1.761979e-05 -1.070657e-05 -1.692601e-27)
(1.274927e-05 -1.360752e-05 5.959156e-28)
(1.515962e-05 -1.337141e-05 7.772269e-28)
(1.251502e-05 -1.60207e-05 1.839752e-24)
(1.013498e-05 -1.617264e-05 -3.637737e-26)
(2.468273e-05 -2.120567e-06 -1.147425e-27)
(2.639121e-05 -1.118467e-06 -1.313342e-27)
(2.36827e-05 -4.768614e-06 -2.74381e-27)
(2.569346e-05 -3.821547e-06 -1.147613e-27)
(2.212611e-05 -7.432816e-06 9.734439e-28)
(2.439035e-05 -6.739158e-06 -2.006379e-29)
(2.005235e-05 -1.021277e-05 8.533563e-29)
(2.253518e-05 -9.665354e-06 9.784475e-28)
(1.765787e-05 -1.299577e-05 -1.159177e-28)
(2.021966e-05 -1.261592e-05 -3.233885e-24)
(1.502232e-05 -1.576184e-05 7.779476e-28)
(1.76172e-05 -1.552818e-05 2.620767e-24)
(1.478058e-05 -1.836347e-05 -2.217043e-24)
(1.220708e-05 -1.846386e-05 7.09897e-31)
(2.762094e-05 -2.653575e-06 -1.313596e-27)
(2.955727e-05 -1.390519e-06 -5.1458e-24)
(2.660586e-05 -5.794902e-06 -1.107123e-29)
(2.884198e-05 -4.621332e-06 0)
(2.500167e-05 -8.894604e-06 -7.549264e-27)
(2.749245e-05 -8.024092e-06 -3.757851e-29)
(2.284509e-05 -1.204054e-05 -2.065778e-27)
(2.554251e-05 -1.138374e-05 1.505729e-27)
(2.03162e-05 -1.513728e-05 -1.138495e-27)
(2.311077e-05 -1.465889e-05 -4.347515e-24)
(1.749068e-05 -1.813968e-05 1.382077e-28)
(2.030938e-05 -1.78925e-05 8.936957e-28)
(1.724408e-05 -2.096587e-05 1.165178e-28)
(1.444141e-05 -2.102572e-05 -2.20689e-28)
(3.101576e-05 -3.211682e-06 -1.473145e-27)
(3.32106e-05 -1.678406e-06 -1.472466e-27)
(2.995566e-05 -6.880352e-06 -2.647782e-29)
(3.245627e-05 -5.471134e-06 -1.613352e-27)
(2.825673e-05 -1.046484e-05 -1.513054e-27)
(3.10337e-05 -9.396311e-06 -2.648458e-29)
(2.600926e-05 -1.400426e-05 -2.752579e-25)
(2.898187e-05 -1.322218e-05 4.033618e-24)
(2.328036e-05 -1.746891e-05 -7.767118e-28)
(2.638191e-05 -1.691297e-05 -7.247103e-28)
(2.020235e-05 -2.076475e-05 8.721287e-28)
(2.329585e-05 -2.05006e-05 6.876206e-29)
(1.995075e-05 -2.385867e-05 3.044626e-24)
(1.687666e-05 -2.388332e-05 1.582793e-27)
(3.491014e-05 -3.807993e-06 -1.612573e-27)
(3.739792e-05 -1.989308e-06 0)
(3.37775e-05 -8.042817e-06 -1.613677e-27)
(3.6582e-05 -6.391118e-06 -6.031201e-24)
(3.197043e-05 -1.21419e-05 1.483705e-27)
(3.504406e-05 -1.088601e-05 -1.814602e-29)
(2.95643e-05 -1.613752e-05 -1.136764e-25)
(3.282779e-05 -1.521016e-05 1.459896e-27)
(2.655373e-05 -2.004101e-05 1.252084e-28)
(2.999341e-05 -1.940648e-05 5.631382e-29)
(2.319896e-05 -2.367712e-05 -1.351177e-25)
(2.661254e-05 -2.339171e-05 6.873219e-29)
(2.294167e-05 -2.708008e-05 1.08295e-27)
(1.955236e-05 -2.707142e-05 1.175222e-27)
(3.935822e-05 -4.45813e-06 -3.635725e-27)
(4.217947e-05 -2.330575e-06 -2.105031e-27)
(3.812378e-05 -9.316369e-06 -3.656357e-27)
(4.128207e-05 -7.402717e-06 -6.762405e-24)
(3.61571e-05 -1.399688e-05 5.109846e-26)
(3.959573e-05 -1.253174e-05 -6.000844e-29)
(3.352854e-05 -1.851308e-05 -2.577149e-29)
(3.716401e-05 -1.743661e-05 -5.450212e-29)
(3.021895e-05 -2.288831e-05 0)
(3.404236e-05 -2.21608e-05 0)
(2.652984e-05 -2.691504e-05 0)
(3.031485e-05 -2.660371e-05 -1.593058e-27)
(2.626096e-05 -3.067278e-05 -2.076505e-28)
(2.250877e-05 -3.062981e-05 -1.03782e-28)
(4.44264e-05 -5.175836e-06 1.935672e-26)
(4.762756e-05 -2.709322e-06 -7.916253e-24)
(4.306261e-05 -1.072384e-05 8.53434e-26)
(4.662759e-05 -8.525929e-06 -4.384116e-27)
(4.089257e-05 -1.604958e-05 7.479489e-26)
(4.475725e-05 -1.436052e-05 -1.13824e-28)
(3.798796e-05 -2.114973e-05 -2.96008e-29)
(4.205995e-05 -1.991614e-05 -9.572381e-29)
(3.432711e-05 -2.60505e-05 -1.611577e-27)
(3.859128e-05 -2.522492e-05 0)
(3.024417e-05 -3.052545e-05 2.498882e-25)
(3.44627e-05 -3.018006e-05 -5.441356e-24)
(2.995421e-05 -3.468809e-05 -3.248941e-28)
(2.578677e-05 -3.460519e-05 3.094547e-25)
(5.019308e-05 -5.97602e-06 1.248857e-26)
(5.382843e-05 -3.133458e-06 -5.07061e-27)
(4.86701e-05 -1.229358e-05 1.037636e-25)
(5.270237e-05 -9.78378e-06 -8.663111e-24)
(4.625134e-05 -1.834045e-05 2.009541e-25)
(5.060884e-05 -1.640995e-05 -2.581729e-27)
(4.300638e-05 -2.409476e-05 -6.766156e-29)
(4.759047e-05 -2.270448e-05 -6.657891e-29)
(3.894137e-05 -2.956489e-05 -1.725872e-27)
(4.369662e-05 -2.869408e-05 7.348627e-28)
(3.439897e-05 -3.456494e-05 -1.821917e-27)
(3.913283e-05 -3.413114e-05 -6.09822e-28)
(3.406654e-05 -3.917916e-05 1.468398e-28)
(2.94282e-05 -3.905308e-05 3.700495e-25)
(5.675099e-05 -6.875366e-06 -7.933428e-27)
(6.088399e-05 -3.611614e-06 -1.025002e-23)
(5.503665e-05 -1.405768e-05 -7.752581e-27)
(5.960544e-05 -1.120089e-05 -9.845239e-24)
(5.232552e-05 -2.091871e-05 -2.511614e-27)
(5.724854e-05 -1.871553e-05 -9.211823e-24)
(4.866878e-05 -2.743075e-05 7.282012e-28)
(5.387553e-05 -2.582923e-05 -2.582136e-27)
(4.421795e-05 -3.350521e-05 -2.802975e-24)
(4.957984e-05 -3.25499e-05 8.403977e-28)
(3.908527e-05 -3.908481e-05 -9.273965e-25)
(4.447762e-05 -3.863465e-05 -1.038935e-27)
(3.866906e-05 -4.422906e-05 2.016824e-27)
(3.34831e-05 -4.403637e-05 2.640995e-28)
(6.420827e-05 -7.891942e-06 -1.032313e-26)
(6.891362e-05 -4.15414e-06 -3.049978e-27)
(6.226316e-05 -1.60481e-05 -1.633546e-25)
(6.744942e-05 -1.280735e-05 -1.12853e-23)
(5.920543e-05 -2.381445e-05 -8.227651e-27)
(6.477205e-05 -2.132639e-05 -1.063646e-23)
(5.512458e-05 -3.112677e-05 -3.782833e-25)
(6.094981e-05 -2.935763e-05 -9.788781e-24)
(5.017451e-05 -3.790813e-05 -1.996795e-27)
(5.611666e-05 -3.684481e-05 1.086468e-28)
(4.427219e-05 -4.418003e-05 -3.367695e-28)
(5.035371e-05 -4.374275e-05 -6.96909e-24)
(4.379743e-05 -4.992663e-05 6.142003e-24)
(3.799205e-05 -4.964427e-05 5.2071e-25)
(7.269293e-05 -9.048716e-06 -3.334628e-27)
(7.805928e-05 -4.772929e-06 3.913198e-27)
(7.047079e-05 -1.831213e-05 -1.861149e-25)
(7.637181e-05 -1.463836e-05 -3.335115e-27)
(6.699461e-05 -2.711373e-05 -9.20839e-27)
(7.331581e-05 -2.430134e-05 -3.175912e-27)
(6.237529e-05 -3.53671e-05 -6.042591e-27)
(6.896629e-05 -3.338562e-05 -1.119359e-23)
(5.677689e-05 -4.296335e-05 -2.380194e-27)
(6.348104e-05 -4.180232e-05 3.272284e-27)
(5.008926e-05 -4.99418e-05 -2.387826e-27)
(5.693206e-05 -4.950765e-05 -2.430633e-27)
(4.952737e-05 -5.635029e-05 -7.438237e-24)
(4.30114e-05 -5.597205e-05 -1.436036e-27)
(8.235577e-05 -1.037032e-05 3.913905e-27)
(8.848653e-05 -5.480958e-06 1.556165e-23)
(7.980438e-05 -2.089562e-05 0)
(8.65311e-05 -1.673167e-05 0)
(7.583463e-05 -3.087346e-05 1.085667e-28)
(8.30279e-05 -2.769864e-05 0)
(7.057108e-05 -4.01894e-05 -5.786352e-25)
(7.805704e-05 -3.798229e-05 1.299443e-23)
(6.418637e-05 -4.87042e-05 3.339513e-27)
(7.179501e-05 -4.747959e-05 1.203735e-23)
(5.661453e-05 -5.643128e-05 -2.465e-27)
(6.430703e-05 -5.615234e-05 -3.151151e-27)
(5.597555e-05 -6.353718e-05 -2.44902e-27)
(4.860415e-05 -6.312629e-05 -4.894624e-27)
(9.337217e-05 -1.188456e-05 8.881805e-27)
(0.0001003883 -6.29296e-06 1.79274e-23)
(9.043031e-05 -2.385143e-05 0)
(9.811159e-05 -1.912968e-05 3.194957e-29)
(8.588214e-05 -3.517084e-05 3.734345e-27)
(9.408226e-05 -3.158453e-05 4.719627e-27)
(7.987355e-05 -4.570546e-05 6.646358e-25)
(8.839093e-05 -4.322855e-05 3.879042e-27)
(7.256217e-05 -5.532274e-05 3.910788e-27)
(8.128002e-05 -5.392931e-05 1.234504e-23)
(6.413665e-05 -6.386357e-05 -3.170911e-27)
(7.290723e-05 -6.364086e-05 -8.191056e-24)
(6.341329e-05 -7.185427e-05 0)
(5.48879e-05 -7.124339e-05 2.319933e-27)
(0.0001059444 -1.362226e-05 5.075202e-27)
(0.0001139862 -7.22531e-06 5.040258e-27)
(0.0001025389 -2.72377e-05 -2.926159e-25)
(0.000111324 -2.188068e-05 -5.520873e-27)
(9.730853e-05 -4.008274e-05 4.86451e-27)
(0.000106672 -3.603782e-05 1.863881e-23)
(9.04275e-05 -5.197655e-05 -8.21203e-25)
(0.0001001212 -4.923453e-05 1.44077e-28)
(8.212632e-05 -6.272588e-05 -3.385891e-27)
(9.194857e-05 -6.129151e-05 -1.54125e-23)
(7.265549e-05 -7.223065e-05 -3.667659e-27)
(8.238401e-05 -7.204922e-05 -2.611684e-27)
(7.148997e-05 -8.139598e-05 5.467965e-28)
(6.177876e-05 -8.046465e-05 2.083416e-27)
(0.0001203059 -1.561825e-05 -5.549257e-27)
(0.0001295352 -8.295581e-06 -6.517251e-27)
(0.0001163514 -3.112386e-05 -2.600145e-28)
(0.0001264139 -2.503785e-05 -2.28362e-23)
(0.0001103189 -4.57191e-05 5.298408e-27)
(0.0001210316 -4.114675e-05 1.130431e-26)
(0.0001024023 -5.919078e-05 -4.12807e-27)
(0.0001134826 -5.612682e-05 0)
(9.288033e-05 -7.132124e-05 -2.200324e-24)
(0.0001040824 -6.976609e-05 -4.595029e-27)
(8.202109e-05 -8.195849e-05 -2.897444e-24)
(9.309501e-05 -8.185423e-05 9.636745e-28)
(8.053937e-05 -9.228754e-05 1.166433e-27)
(6.946884e-05 -9.107434e-05 -7.861585e-29)
(0.0001367242 -1.79079e-05 -1.282805e-26)
(0.0001473228 -9.522027e-06 -2.706229e-23)
(0.0001321246 -3.558258e-05 -3.093246e-28)
(0.0001436625 -2.865221e-05 -1.348816e-26)
(0.000125157 -5.218172e-05 6.010879e-27)
(0.0001374255 -4.700257e-05 2.482655e-23)
(0.0001160371 -6.745845e-05 -4.659445e-28)
(0.0001287186 -6.402734e-05 0)
(0.000105076 -8.115749e-05 2.619404e-24)
(0.0001178887 -7.948418e-05 -4.660111e-28)
(9.25584e-05 -9.307559e-05 -3.38942e-24)
(0.0001052231 -9.314936e-05 -5.175158e-27)
(9.074953e-05 -0.0001049652 -3.6827e-28)
(7.81529e-05 -0.0001031567 3.885235e-27)
(0.0001555044 -2.05209e-05 -1.459531e-26)
(0.0001676746 -1.091411e-05 -1.588777e-26)
(0.0001501541 -4.068946e-05 -3.464218e-28)
(0.0001633962 -3.277786e-05 -3.068446e-23)
(0.0001420971 -5.958554e-05 6.835736e-27)
(0.000156157 -5.370419e-05 6.830381e-27)
(0.0001315852 -7.693717e-05 0)
(0.0001461152 -7.307535e-05 6.749609e-27)
(0.0001189693 -9.245879e-05 -5.165612e-27)
(0.0001336407 -9.061483e-05 -6.080942e-28)
(0.0001045462 -0.0001059694 -6.238781e-27)
(0.0001191363 -0.0001060237 -1.712011e-23)
(0.0001028939 -0.0001191496 3.414538e-24)
(8.856216e-05 -0.0001171643 2.412679e-23)
(0.0001769869 -2.347468e-05 2.784121e-25)
(0.0001909227 -1.25212e-05 -3.344261e-23)
(0.0001707713 -4.65275e-05 -8.229071e-27)
(0.0001859854 -3.738974e-05 -8.249554e-27)
(0.0001614531 -6.805289e-05 6.744088e-27)
(0.0001775653 -6.132941e-05 -9.041891e-27)
(0.0001493273 -8.779083e-05 3.153278e-24)
(0.0001659995 -8.343141e-05 3.136618e-23)
(0.0001347476 -0.0001053643 -1.160349e-26)
(0.0001515844 -0.0001034249 -8.097935e-27)
(0.0001180396 -0.0001203754 -4.434032e-24)
(0.00013468 -0.0001209296 -2.632205e-23)
(0.000115486 -0.0001354962 -2.321108e-23)
(9.952653e-05 -0.0001323039 -1.481052e-23)
(0.0002015928 -2.675158e-05 -9.691872e-27)
(0.0002176091 -1.427177e-05 -9.603634e-27)
(0.0001944226 -5.310802e-05 -9.064427e-27)
(0.0002119075 -4.265261e-05 0)
(0.0001836207 -7.770315e-05 1.520785e-24)
(0.0002021054 -6.995969e-05 -3.883949e-23)
(0.0001696556 -0.0001002551 4.807859e-28)
(0.0001888142 -9.523922e-05 7.956956e-27)
(0.0001528 -0.0001203918 -2.074218e-26)
(0.0001722546 -0.0001181567 -3.416572e-23)
(0.0001333178 -0.0001377096 -1.891699e-26)
(0.000152734 -0.0001383526 -3.197536e-23)
(0.0001303858 -0.000155382 7.492208e-28)
(0.0001114528 -0.0001517139 -1.424701e-26)
(0.0002296898 -3.048628e-05 0)
(0.0002479767 -1.624129e-05 -1.260803e-26)
(0.0002213429 -6.049857e-05 -2.021192e-26)
(0.0002412418 -4.874067e-05 1.193454e-26)
(0.0002090312 -8.863646e-05 -2.013615e-26)
(0.0002301919 -7.944006e-05 -4.566806e-23)
(0.0001930442 -0.0001144581 -1.704386e-26)
(0.0002150042 -0.0001084921 0)
(0.000173721 -0.0001376477 -2.459404e-26)
(0.0001961339 -0.0001349016 -3.918493e-23)
(0.0001512798 -0.0001578149 -1.177691e-27)
(0.0001738355 -0.0001583055 -7.53226e-27)
(0.000148251 -0.0001782341 2.857469e-23)
(0.0001259287 -0.0001744578 6.473419e-27)
(0.0002615707 -3.483288e-05 9.540384e-25)
(0.0002826366 -1.847884e-05 -4.897856e-23)
(0.0002521761 -6.863968e-05 2.330197e-26)
(0.0002749479 -5.534006e-05 4.536835e-23)
(0.000238294 -0.0001006624 1.128676e-26)
(0.0002624436 -9.035564e-05 8.796019e-23)
(0.0002200265 -0.0001304471 -9.735854e-27)
(0.0002452499 -0.0001229455 2.471663e-26)
(0.0001979909 -0.0001572194 -9.733554e-27)
(0.0002237007 -0.0001536915 -1.976498e-26)
(0.00017231 -0.0001807461 4.854168e-27)
(0.0001984245 -0.0001810047 1.226882e-27)
(0.0001689667 -0.0002045411 3.463092e-27)
(0.0001430076 -0.0002001363 1.62014e-23)
(0.0002980894 -3.94768e-05 -5.145491e-28)
(0.0003218247 -2.092304e-05 -1.42739e-26)
(0.0002872918 -7.774862e-05 5.277089e-26)
(0.0003130818 -6.236879e-05 1.393404e-26)
(0.00027183 -0.0001139332 6.420826e-26)
(0.0002992993 -0.0001021865 4.475223e-23)
(0.0002512639 -0.0001481558 -5.260404e-24)
(0.0002803104 -0.0001392312 9.668199e-23)
(0.0002262054 -0.000179249 -8.806408e-27)
(0.0002556282 -0.0001745339 -5.254579e-23)
(0.0001970219 -0.0002070625 -6.468084e-24)
(0.0002272677 -0.0002066048 4.032478e-27)
(0.0001938208 -0.0002349444 5.031937e-27)
(0.0001630866 -0.0002306026 1.79353e-23)
(0.0003391878 -4.46368e-05 -7.572512e-25)
(0.0003660357 -2.364144e-05 -4.536189e-30)
(0.0003271561 -8.759122e-05 1.577091e-26)
(0.0003558578 -7.029835e-05 -1.385062e-29)
(0.0003099641 -0.0001283544 -4.873966e-24)
(0.0003404153 -0.000114867 3.206465e-26)
(0.0002866948 -0.0001674519 6.70445e-24)
(0.0003191542 -0.0001576129 3.367221e-26)
(0.0002589918 -0.0002037075 -1.220239e-26)
(0.0002924162 -0.000196748 -2.774853e-26)
(0.0002263103 -0.0002367362 -1.239271e-23)
(0.0002609766 -0.000234758 1.240637e-26)
(0.0002237775 -0.0002692298 6.413287e-27)
(0.0001877341 -0.0002658289 -1.745264e-23)
(0.0003854131 -5.034778e-05 8.819255e-25)
(0.0004157943 -2.66142e-05 -3.887131e-29)
(0.0003718061 -9.866019e-05 1.621438e-26)
(0.0004039485 -7.899329e-05 -1.186908e-28)
(0.0003524907 -0.0001447517 3.226401e-24)
(0.0003869181 -0.0001289026 5.742865e-23)
(0.000327593 -0.0001884125 3.14112e-23)
(0.000364025 -0.0001770529 4.947668e-23)
(0.0002972277 -0.0002299273 9.697111e-24)
(0.0003350869 -0.0002220536 1.810175e-26)
(0.0002610707 -0.0002694521 9.593382e-27)
(0.0003005918 -0.0002645405 7.073305e-23)
(0.0002597248 -0.000306983 0)
(0.0002181059 -0.0003054681 -1.02907e-27)
(0.000437232 -5.651331e-05 0)
(0.0004715108 -2.983746e-05 -9.836188e-29)
(0.0004217663 -0.0001104515 1.94736e-26)
(0.0004575447 -8.837034e-05 2.927953e-28)
(0.0004007851 -0.0001617379 4.00686e-26)
(0.000438381 -0.0001438989 2.0456e-26)
(0.0003739273 -0.0002111102 -5.192446e-24)
(0.0004137534 -0.0001969835 2.053341e-26)
(0.0003415205 -0.0002583488 -2.734656e-23)
(0.0003835284 -0.0002486591 3.625158e-23)
(0.0003020581 -0.0003046883 2.786198e-26)
(0.0003472601 -0.0002972955 2.413427e-26)
(0.0003020824 -0.0003477 -9.531693e-27)
(0.0002545525 -0.000348925 -9.99895e-27)
(0.0004949999 -6.317832e-05 2.440704e-24)
(0.0005336008 -3.330238e-05 -2.705431e-26)
(0.0004771571 -0.0001232356 -4.610839e-24)
(0.0005170136 -9.847385e-05 6.284644e-28)
(0.0004539332 -0.0001802876 9.777712e-28)
(0.0004952634 -0.0001602122 -2.396663e-26)
(0.000425227 -0.0002349394 3.783645e-26)
(0.0004681745 -0.0002191901 0)
(0.0003911276 -0.0002878005 3.531757e-26)
(0.0004357673 -0.0002763595 5.623465e-23)
(0.0003476237 -0.0003410628 -1.123806e-23)
(0.0003968567 -0.0003338469 -1.455728e-26)
(0.0003486868 -0.0003906132 -6.093422e-26)
(0.0002946988 -0.000395483 -2.508565e-23)
(0.0005590226 -7.025035e-05 -2.657666e-24)
(0.0006022694 -3.694513e-05 -7.734474e-23)
(0.0005383856 -0.0001370259 -2.457322e-26)
(0.0005827042 -0.0001091596 -2.874506e-26)
(0.0005125803 -0.0002005684 -2.495122e-26)
(0.0005581581 -0.0001778378 -7.682505e-23)
(0.0004815341 -0.0002616066 2.524982e-26)
(0.0005285691 -0.0002434841 -3.34573e-27)
(0.0004440453 -0.0003213979 4.057296e-24)
(0.0004938635 -0.0003073348 1.673311e-26)
(0.0003972948 -0.0003808924 -1.957669e-22)
(0.0004509737 -0.0003725021 -5.028247e-23)
(0.0003950597 -0.0004397955 -7.729811e-26)
(0.0003339665 -0.0004465816 -1.14967e-22)
(0.0006295278 -7.748956e-05 -2.588891e-24)
(0.0006774044 -4.085768e-05 -3.04515e-26)
(0.0006060271 -0.0001517948 -5.722257e-26)
(0.0006551269 -0.0001199459 -8.337876e-23)
(0.0005772518 -0.0002223381 -3.150531e-26)
(0.0006274603 -0.0001963958 3.424929e-27)
(0.0005426782 -0.0002897625 2.470323e-24)
(0.0005940972 -0.0002695958 -1.442096e-27)
(0.0005001268 -0.0003558204 -1.032319e-23)
(0.000553731 -0.0003413705 -4.050202e-26)
(0.0004461494 -0.0004237176 -7.039099e-23)
(0.0005025991 -0.0004153009 -2.87408e-28)
(0.0004341102 -0.0004999875 -2.550586e-26)
(0.0003683148 -0.0005029497 -2.385858e-22)
(0.0007067397 -8.464072e-05 3.187742e-26)
(0.0007593313 -4.448427e-05 3.867452e-26)
(0.0006804739 -0.0001665892 5.69813e-24)
(0.0007342459 -0.0001312126 9.548782e-23)
(0.0006477845 -0.0002449612 -3.24878e-24)
(0.0007029022 -0.0002139159 6.895411e-23)
(0.0006079927 -0.0003204348 -3.004201e-26)
(0.0006643179 -0.0002963114 6.819358e-26)
(0.0005587574 -0.0003968103 -2.660893e-23)
(0.0006177992 -0.0003790597 -9.834901e-23)
(0.0004946067 -0.0004792435 -6.255609e-27)
(0.0005592876 -0.0004670682 1.313793e-26)
(0.0004789803 -0.0005697864 -1.80771e-26)
(0.0004055157 -0.0005734917 2.308098e-27)
(0.0007892829 -9.149965e-05 1.089574e-25)
(0.0008453829 -4.69796e-05 -1.419962e-23)
(0.0007597162 -0.0001799283 1.386186e-23)
(0.0008175278 -0.0001404311 6.963907e-26)
(0.0007232688 -0.0002659098 9.637039e-26)
(0.0007825704 -0.0002309102 2.983724e-26)
(0.0006784552 -0.0003523263 3.031248e-26)
(0.0007405489 -0.0003212564 1.583554e-22)
(0.000622869 -0.000442429 -3.94017e-23)
(0.0006890924 -0.0004197445 3.140046e-26)
(0.0005485014 -0.0005422807 1.67945e-27)
(0.0006241875 -0.00052816 1.223977e-22)
(0.0005319314 -0.0006561451 -6.997773e-27)
(0.0004410522 -0.0006565706 -3.437789e-22)
(0.0008729365 -9.614852e-05 9.695789e-25)
(0.0009287504 -4.800667e-05 -4.071252e-27)
(0.0008405922 -0.0001909058 -5.198072e-28)
(0.0008999333 -0.0001456654 5.943176e-28)
(0.0008025414 -0.0002847179 1.752762e-27)
(0.0008645555 -0.0002447794 1.897999e-27)
(0.0007565343 -0.0003842927 6.994789e-26)
(0.0008239496 -0.0003476919 1.957143e-23)
(0.0006965652 -0.0004952252 1.177936e-25)
(0.0007733213 -0.0004620759 5.999703e-23)
(0.0006096826 -0.0006218628 -1.365715e-22)
(0.0007027849 -0.0006056275 -6.138602e-23)
(0.0005858965 -0.0007840062 1.330444e-26)
(0.0004722351 -0.0007646753 7.715341e-22)
(0.000950562 -9.884724e-05 -4.550115e-26)
(0.001001205 -4.737527e-05 2.361321e-22)
(0.0009200996 -0.0001982899 2.410232e-24)
(0.0009758129 -0.0001482758 1.104129e-27)
(0.0008846764 -0.000301268 -9.664047e-26)
(0.0009456199 -0.0002530403 5.847147e-27)
(0.0008423336 -0.0004157423 -2.768367e-22)
(0.0009124902 -0.0003716617 -9.266639e-26)
(0.0007794958 -0.0005528416 3.180824e-22)
(0.0008673132 -0.0005156866 8.248576e-26)
(0.0006738466 -0.0007185134 5.45475e-26)
(0.0007857261 -0.0007052918 1.386445e-25)
(0.0006359301 -0.0009624269 7.203667e-23)
(0.0004963664 -0.0009008778 1.747342e-21)
(0.00101704 -9.953181e-05 -4.976769e-26)
(0.001056762 -4.577204e-05 -4.977447e-26)
(0.0009932817 -0.0002020535 3.965359e-27)
(0.001040711 -0.0001473984 2.436572e-27)
(0.000966342 -0.00031165 7.357039e-23)
(0.001019269 -0.0002565439 8.13925e-27)
(0.0009290591 -0.0004450343 2.518861e-26)
(0.0009993741 -0.0003909106 1.209608e-26)
(0.0008647038 -0.000616011 3.106367e-21)
(0.0009546225 -0.0005821702 5.491865e-22)
(0.0007425351 -0.0008300448 6.128323e-26)
(0.0008685302 -0.0008372245 8.777236e-26)
(0.0007082788 -0.001163371 1.346927e-26)
(0.0005374297 -0.001077592 -1.219732e-25)
(0.001068672 -9.78616e-05 2.431746e-27)
(0.001094378 -4.360597e-05 0)
(0.00105448 -0.0001996792 2.398641e-23)
(0.001089431 -0.0001438908 5.053602e-26)
(0.001036465 -0.0003136151 1.042734e-26)
(0.00107753 -0.000256694 -3.993933e-27)
(0.001003956 -0.0004687087 4.146582e-22)
(0.001064348 -0.0004147228 -8.77514e-26)
(0.0009362357 -0.0006760866 -3.555703e-26)
(0.001018521 -0.0006541998 9.608882e-27)
(0.0008232649 -0.0009326515 3.913131e-26)
(0.0009322752 -0.000979801 6.807274e-27)
(0.0008031957 -0.00137493 -5.812578e-21)
(0.0006086329 -0.001234024 -5.691588e-21)
(0.001103075 -9.488134e-05 4.781115e-26)
(0.001114421 -4.089395e-05 -5.330799e-26)
(0.001096604 -0.0001924035 -1.510927e-22)
(0.001118947 -0.0001398211 -3.482117e-22)
(0.001081741 -0.000311514 -1.031665e-25)
(0.001110606 -0.0002639302 -1.065006e-26)
(0.00104872 -0.0004876666 -5.009247e-26)
(0.001089671 -0.0004541454 1.632831e-21)
(0.0009853283 -0.0007201148 5.087431e-26)
(0.001046221 -0.0007319599 -1.047338e-21)
(0.0008833332 -0.001006789 -5.280547e-21)
(0.0009750531 -0.001096988 -1.37401e-21)
(0.0008713017 -0.001549327 3.094043e-26)
(0.0007444969 -0.001369743 7.541926e-27)
(0.00111732 -9.036218e-05 -3.70144e-24)
(0.001113985 -3.888949e-05 2.975124e-22)
(0.001113953 -0.0001869072 -9.17428e-23)
(0.001124819 -0.0001419921 4.376453e-22)
(0.001090937 -0.0003182695 -9.241489e-26)
(0.001109014 -0.0002902223 -5.410792e-26)
(0.001053341 -0.0005048447 4.991162e-26)
(0.001069192 -0.0005164584 -1.343708e-25)
(0.0009918493 -0.0007469185 4.536394e-21)
(0.001031744 -0.0008201837 -2.944318e-21)
(0.0009121365 -0.001026491 6.959729e-26)
(0.0009573604 -0.001202032 7.197479e-26)
(0.000887773 -0.001654887 -9.673953e-26)
(0.0008015489 -0.001371755 1.422718e-28)
(0.001105942 -8.908662e-05 9.698436e-24)
(0.001089675 -4.059335e-05 -1.921535e-27)
(0.001099043 -0.0001940017 -1.793535e-22)
(0.001099869 -0.0001608078 -5.424857e-26)
(0.001063634 -0.0003387106 -9.549183e-26)
(0.001070379 -0.0003412745 5.648513e-22)
(0.001010846 -0.000530548 1.992675e-26)
(0.00101768 -0.0005962292 7.347612e-22)
(0.0009557719 -0.0007709187 6.596721e-26)
(0.0009510849 -0.0009257596 6.411807e-26)
(0.0008959403 -0.001036006 -9.835659e-26)
(0.0008787429 -0.001308293 4.302244e-26)
(0.0008728605 -0.001739421 -4.6388e-26)
(0.0008058918 -0.001364923 -2.662745e-20)
(0.001065787 -9.802456e-05 4.849805e-26)
(0.001038054 -5.028616e-05 -3.741423e-22)
(0.001049801 -0.0002188787 -2.887826e-22)
(0.001040988 -0.0002009049 -1.888686e-27)
(0.000999875 -0.0003747739 -1.382046e-21)
(0.0009966808 -0.0004162746 5.010332e-22)
(0.0009314918 -0.0005685954 -4.904822e-26)
(0.0009281245 -0.0006981997 -2.305361e-26)
(0.0008560356 -0.0007899082 4.112734e-26)
(0.000846622 -0.001037263 -4.038826e-27)
(0.0007835142 -0.001025994 1.12753e-20)
(0.000762231 -0.001418682 -4.950905e-27)
(0.000686756 -0.001844417 -6.78904e-27)
(0.0007533789 -0.001306278 2.387564e-26)
(0.0009967374 -0.0001223676 4.678347e-26)
(0.0009598346 -7.041251e-05 6.803375e-26)
(0.0009695471 -0.0002647869 -6.75022e-26)
(0.0009538573 -0.0002630262 -1.902847e-26)
(0.0009045419 -0.0004327339 1.809439e-21)
(0.0008957604 -0.00051062 3.374028e-22)
(0.0008217016 -0.0006273215 3.111656e-21)
(0.0008125419 -0.0008177615 -1.152086e-26)
(0.0007324391 -0.0008328172 -4.974061e-26)
(0.0007171377 -0.001168781 5.524917e-22)
(0.0006436709 -0.001039944 -1.343924e-20)
(0.0006195514 -0.001549183 -9.626117e-26)
(0.0005247943 -0.001950671 -5.660777e-26)
(0.0005738924 -0.001264825 -1.410826e-25)