/*--------------------------------*- C++ -*----------------------------------*\
| =========                 |                                                 |
| \\      /  F ield         | OpenFOAM: The Open Source CFD Toolbox           |
|  \\    /   O peration     | Version:  2206                                  |
|   \\  /    A nd           | Website:  www.openfoam.com                      |
|    \\/     M anipulation  |                                                 |
\*---------------------------------------------------------------------------*/
FoamFile
{
    version     2.0;
    format      ascii;
    arch        "LSB;label=32;scalar=64";
    class       surfaceVectorField;
    location    "1.8";
    object      Ufb_0;
}
// * * * * * * * * * * * * * * * * * * * * * * * * * * * * * * * * * * * * * //

dimensions      [0 1 -1 0 0 0 0];

internalField   nonuniform List<vector> 
26037
(
(-4.361866e-06 5.524792e-05 7.232692e-22)
(2.765472e-05 4.173541e-06 -1.518644e-27)
(-4.910305e-06 2.556783e-05 4.205838e-23)
(4.819839e-06 3.267139e-05 1.659874e-24)
(-4.555713e-06 8.202534e-06 1.04206e-27)
(-4.670646e-07 1.576044e-05 1.044426e-27)
(-4.65177e-06 -5.752178e-07 1.233312e-28)
(-3.075244e-06 4.572605e-06 0)
(-4.754152e-06 -5.91507e-06 5.871208e-24)
(-3.611711e-06 -2.839311e-06 1.235913e-28)
(-4.88288e-06 -1.017047e-05 -2.317923e-29)
(-3.930441e-06 -7.825682e-06 -5.611635e-27)
(-4.202929e-06 -1.185968e-05 -4.926197e-29)
(-5.022027e-06 -1.376859e-05 2.486019e-24)
(1.41168e-05 3.683671e-05 -8.521998e-30)
(5.185062e-05 4.735616e-06 1.355346e-27)
(2.906475e-06 2.069723e-05 -8.603906e-30)
(1.871127e-05 1.992697e-05 -7.419819e-28)
(-2.044123e-07 7.7142e-06 0)
(5.866741e-06 1.175718e-05 -2.782493e-28)
(-1.959674e-06 -2.644017e-07 2.74999e-31)
(1.043574e-06 3.224258e-06 -3.653525e-28)
(-2.706108e-06 -5.770757e-06 6.311283e-31)
(-8.689128e-07 -3.028122e-06 4.502852e-26)
(-3.206942e-06 -1.013752e-05 1.348125e-30)
(-1.88945e-06 -7.887028e-06 3.562101e-31)
(-2.569909e-06 -1.192553e-05 -4.874942e-27)
(-3.622132e-06 -1.3797e-05 -1.162632e-28)
(3.109154e-05 1.631352e-05 6.182245e-28)
(3.230531e-05 4.140958e-06 9.287443e-23)
(1.310972e-05 1.180649e-05 -1.022557e-27)
(1.784225e-05 9.742746e-06 -2.016037e-23)
(4.80802e-06 5.256112e-06 2.348934e-25)
(9.347443e-06 6.411177e-06 -1.06727e-27)
(1.453255e-06 -7.75594e-07 -2.677547e-24)
(4.617733e-06 1.35474e-06 -6.150107e-28)
(-2.245982e-07 -5.875506e-06 -8.872902e-29)
(1.990214e-06 -3.66136e-06 -7.58814e-26)
(-1.265309e-06 -1.018783e-05 -3.48647e-34)
(4.002414e-07 -8.171381e-06 0)
(-7.124497e-07 -1.213592e-05 4.028833e-27)
(-2.048047e-06 -1.389351e-05 1.219196e-28)
(2.442974e-05 7.969293e-06 -3.583364e-28)
(2.520902e-05 2.741056e-06 8.294027e-28)
(1.471078e-05 6.870724e-06 -1.981272e-27)
(1.795752e-05 5.335989e-06 -1.621679e-23)
(8.388781e-06 2.936232e-06 2.954003e-25)
(1.202395e-05 3.30231e-06 -3.749497e-24)
(4.690164e-06 -1.712616e-06 -2.444258e-28)
(7.772337e-06 -3.397937e-07 2.235278e-24)
(2.466019e-06 -6.289787e-06 4.508045e-30)
(4.894074e-06 -4.536088e-06 2.368459e-28)
(9.343384e-07 -1.045224e-05 6.68952e-31)
(2.896973e-06 -8.718344e-06 -7.676052e-33)
(1.376178e-06 -1.257912e-05 9.244033e-29)
(-2.529218e-07 -1.415788e-05 -1.330163e-28)
(2.17941e-05 4.458629e-06 -4.56935e-25)
(2.35523e-05 1.649053e-06 1.491621e-30)
(1.618317e-05 3.831931e-06 -5.185586e-25)
(1.913675e-05 2.848081e-06 -5.283337e-28)
(1.138775e-05 9.270526e-07 -1.406111e-27)
(1.463329e-05 1.102183e-06 -8.131568e-28)
(7.821755e-06 -2.920438e-06 -2.300878e-25)
(1.086311e-05 -2.002662e-06 -5.955545e-25)
(5.258503e-06 -7.0171e-06 -2.381495e-25)
(7.905385e-06 -5.684553e-06 -7.065607e-25)
(3.352048e-06 -1.101435e-05 -5.229724e-25)
(5.580559e-06 -9.549522e-06 -6.373455e-29)
(3.683965e-06 -1.332664e-05 -1.743354e-26)
(1.763236e-06 -1.469893e-05 9.17712e-29)
(2.192904e-05 2.258318e-06 -3.453027e-30)
(2.368478e-05 7.956023e-07 0)
(1.811115e-05 1.488638e-06 3.444988e-25)
(2.078634e-05 9.361338e-07 -5.580216e-28)
(1.425458e-05 -9.933324e-07 -4.898473e-25)
(1.730132e-05 -8.583766e-07 -4.69075e-28)
(1.095387e-05 -4.391077e-06 2.60805e-25)
(1.395836e-05 -3.686328e-06 -3.667596e-28)
(8.202872e-06 -8.133345e-06 -6.190571e-29)
(1.100231e-05 -7.140857e-06 -6.07088e-25)
(5.933567e-06 -1.192645e-05 1.543776e-25)
(8.439292e-06 -1.076662e-05 -5.257853e-29)
(6.18504e-06 -1.440825e-05 -2.419268e-28)
(3.988083e-06 -1.558019e-05 7.327396e-25)
(2.31099e-05 7.218764e-07 -5.542759e-28)
(2.486522e-05 1.311345e-07 1.259799e-27)
(2.033974e-05 -4.948114e-07 -1.027607e-27)
(2.285472e-05 -6.34771e-07 -3.458928e-24)
(1.718569e-05 -2.880141e-06 -2.957446e-24)
(2.009799e-05 -2.67676e-06 -2.009982e-24)
(1.409214e-05 -6.068306e-06 -3.454848e-28)
(1.711726e-05 -5.479381e-06 -1.107169e-29)
(1.127382e-05 -9.621241e-06 1.149592e-25)
(1.417471e-05 -8.829929e-06 -1.146262e-27)
(8.71063e-06 -1.326096e-05 1.219238e-29)
(1.144341e-05 -1.23826e-05 2.843903e-29)
(8.876612e-06 -1.591902e-05 2.197097e-29)
(6.38025e-06 -1.683634e-05 -4.954252e-30)
(2.500148e-05 -4.503697e-07 6.62814e-28)
(2.683104e-05 -3.962652e-07 7.668594e-24)
(2.287725e-05 -2.219069e-06 -1.140908e-27)
(2.533688e-05 -1.969132e-06 7.128734e-28)
(2.02013e-05 -4.748526e-06 -5.490208e-28)
(2.305083e-05 -4.388724e-06 7.110506e-29)
(1.727916e-05 -7.93219e-06 -8.188748e-28)
(2.033308e-05 -7.365142e-06 1.005805e-29)
(1.441585e-05 -1.141922e-05 -7.964961e-28)
(1.743211e-05 -1.074871e-05 -2.221584e-24)
(1.166072e-05 -1.501184e-05 3.055377e-26)
(1.456768e-05 -1.43035e-05 3.682441e-29)
(1.174168e-05 -1.786944e-05 2.212287e-29)
(8.980395e-06 -1.853633e-05 -1.999604e-28)
(2.749129e-05 -1.406059e-06 1.309711e-27)
(2.946969e-05 -8.389645e-07 -6.858005e-24)
(2.57563e-05 -3.772151e-06 1.924753e-27)
(2.826725e-05 -3.15673e-06 5.884382e-24)
(2.338412e-05 -6.61099e-06 1.885285e-25)
(2.627196e-05 -6.056525e-06 2.325723e-24)
(2.059011e-05 -9.938824e-06 -1.901911e-27)
(2.372554e-05 -9.319916e-06 -1.234431e-27)
(1.767971e-05 -1.348619e-05 8.021665e-26)
(2.083542e-05 -1.286911e-05 -2.848299e-24)
(1.473444e-05 -1.711727e-05 2.056492e-29)
(1.783989e-05 -1.652776e-05 2.055858e-29)
(1.476575e-05 -2.01732e-05 0)
(1.177837e-05 -2.06825e-05 2.590327e-28)
(3.054692e-05 -2.235896e-06 -4.969571e-29)
(3.273225e-05 -1.236701e-06 -1.501387e-27)
(2.903359e-05 -5.223418e-06 2.136641e-27)
(3.1687e-05 -4.267362e-06 1.452508e-27)
(2.683793e-05 -8.480793e-06 -5.396409e-28)
(2.985064e-05 -7.708855e-06 2.221714e-27)
(2.410346e-05 -1.2081e-05 -1.235706e-27)
(2.738547e-05 -1.136268e-05 -4.171302e-24)
(2.111852e-05 -1.580312e-05 -5.380863e-31)
(2.445604e-05 -1.518832e-05 3.506783e-24)
(1.797847e-05 -1.955908e-05 0)
(2.130766e-05 -1.9046e-05 0)
(1.7977e-05 -2.284501e-05 0)
(1.473055e-05 -2.322697e-05 3.964785e-28)
(3.417154e-05 -3.006091e-06 0)
(3.661191e-05 -1.61666e-06 0)
(3.276857e-05 -6.636255e-06 1.536988e-27)
(3.563926e-05 -5.355839e-06 -1.819974e-27)
(3.064815e-05 -1.039235e-05 1.55989e-28)
(3.386415e-05 -9.38984e-06 5.669306e-24)
(2.790041e-05 -1.437064e-05 -1.404477e-27)
(3.139795e-05 -1.352018e-05 1.694372e-28)
(2.479751e-05 -1.836962e-05 6.821386e-31)
(2.837063e-05 -1.771902e-05 -4.207348e-24)
(2.143823e-05 -2.233656e-05 0)
(2.503118e-05 -2.186558e-05 0)
(2.141731e-05 -2.589276e-05 1.202711e-27)
(1.788172e-05 -2.617176e-05 -3.893522e-28)
(3.839056e-05 -3.761743e-06 -1.819217e-27)
(4.113098e-05 -1.997841e-06 0)
(3.702013e-05 -8.06413e-06 -8.764568e-29)
(4.017376e-05 -6.465109e-06 -6.87878e-24)
(3.489301e-05 -1.238677e-05 3.32208e-27)
(3.838535e-05 -1.114355e-05 1.71693e-27)
(3.206153e-05 -1.683337e-05 -1.760993e-26)
(3.584467e-05 -1.582692e-05 5.488982e-24)
(2.878807e-05 -2.120205e-05 -1.494239e-27)
(3.265841e-05 -2.048696e-05 -3.16822e-27)
(2.517005e-05 -2.546322e-05 1.202297e-27)
(2.907774e-05 -2.500818e-05 1.495513e-27)
(2.51399e-05 -2.933833e-05 3.690793e-24)
(2.12729e-05 -2.953425e-05 -1.891019e-25)
(4.324677e-05 -4.535321e-06 -2.057768e-27)
(4.633272e-05 -2.394394e-06 -2.364761e-27)
(4.18511e-05 -9.551974e-06 2.937215e-26)
(4.53495e-05 -7.629997e-06 -2.058105e-27)
(3.964842e-05 -1.450695e-05 1.782814e-27)
(4.348781e-05 -1.301205e-05 -3.913528e-29)
(3.666732e-05 -1.950287e-05 1.219678e-28)
(4.080422e-05 -1.832103e-05 1.792886e-27)
(3.316552e-05 -2.433078e-05 -1.758012e-28)
(3.740249e-05 -2.352357e-05 -5.910687e-24)
(2.923726e-05 -2.896628e-05 1.496822e-27)
(3.35184e-05 -2.850747e-05 4.96604e-24)
(2.920535e-05 -3.321508e-05 -4.335143e-24)
(2.495485e-05 -3.334316e-05 1.288272e-30)
(4.879828e-05 -5.351966e-06 -2.365217e-27)
(5.227884e-05 -2.817828e-06 -8.671493e-24)
(4.733098e-05 -1.113913e-05 -2.110811e-29)
(5.123659e-05 -8.881203e-06 0)
(4.49875e-05 -1.679677e-05 4.92471e-26)
(4.92501e-05 -1.504126e-05 -7.001407e-29)
(4.180082e-05 -2.240963e-05 -3.867139e-27)
(4.635164e-05 -2.106831e-05 2.772545e-27)
(3.801079e-05 -2.779667e-05 -2.092247e-27)
(4.269773e-05 -2.68335e-05 -7.755719e-24)
(3.370755e-05 -3.288379e-05 2.176395e-28)
(3.842531e-05 -3.239945e-05 1.711942e-27)
(3.367986e-05 -3.75657e-05 2.160801e-28)
(2.898573e-05 -3.763792e-05 -3.621971e-28)
(5.511855e-05 -6.232794e-06 -2.668132e-27)
(5.904723e-05 -3.277544e-06 -2.666902e-27)
(5.354358e-05 -1.286348e-05 -4.885105e-29)
(5.79196e-05 -1.024294e-05 -2.941e-27)
(5.099554e-05 -1.931456e-05 9.924894e-26)
(5.57785e-05 -1.725461e-05 -4.886351e-29)
(4.760329e-05 -2.559205e-05 -1.370256e-24)
(5.266879e-05 -2.405966e-05 7.162652e-24)
(4.343499e-05 -3.16307e-05 -1.480762e-27)
(4.868829e-05 -3.054257e-05 -1.389134e-27)
(3.865971e-05 -3.726037e-05 1.710625e-27)
(4.389568e-05 -3.674531e-05 1.20822e-28)
(3.863907e-05 -4.244625e-05 5.791294e-24)
(3.343087e-05 -4.246801e-05 3.160323e-27)
(6.229247e-05 -7.194621e-06 -2.93958e-27)
(6.672937e-05 -3.78329e-06 0)
(6.057508e-05 -1.474709e-05 -2.941593e-27)
(6.548569e-05 -1.174333e-05 -1.047501e-23)
(5.782011e-05 -2.204991e-05 2.739523e-27)
(6.313057e-05 -1.969647e-05 -3.222375e-29)
(5.412373e-05 -2.910069e-05 -2.901098e-25)
(5.972017e-05 -2.73402e-05 2.697624e-27)
(4.944426e-05 -3.591124e-05 2.20906e-28)
(5.531692e-05 -3.469556e-05 9.986105e-29)
(4.41659e-05 -4.216327e-05 -3.443154e-25)
(4.999543e-05 -4.160976e-05 1.207695e-28)
(4.415597e-05 -4.79236e-05 2.092989e-27)
(3.835908e-05 -4.789669e-05 2.251832e-27)
(7.042193e-05 -8.25965e-06 -6.64156e-27)
(7.543729e-05 -4.345377e-06 -3.840045e-27)
(6.852154e-05 -1.684117e-05 -6.678326e-27)
(7.405045e-05 -1.341299e-05 -1.17961e-23)
(6.548214e-05 -2.511736e-05 1.21589e-25)
(7.14368e-05 -2.242466e-05 -1.057015e-28)
(6.13916e-05 -3.305735e-05 -4.549046e-29)
(6.765266e-05 -3.105335e-05 -9.568997e-29)
(5.61842e-05 -4.069626e-05 0)
(6.275097e-05 -3.932446e-05 0)
(5.031391e-05 -4.765792e-05 0)
(5.682374e-05 -4.705558e-05 -3.003751e-27)
(5.031167e-05 -5.407203e-05 -3.573829e-28)
(4.384332e-05 -5.399546e-05 -1.778723e-28)
(7.96277e-05 -9.446828e-06 -4.79078e-27)
(8.530059e-05 -4.973731e-06 -1.375288e-23)
(7.750634e-05 -1.917671e-05 1.430529e-25)
(8.374095e-05 -1.528002e-05 -8.017238e-27)
(7.412054e-05 -2.854044e-05 1.547859e-25)
(8.081917e-05 -2.547671e-05 -1.986517e-28)
(6.955897e-05 -3.748351e-05 -5.172729e-29)
(7.658964e-05 -3.521502e-05 -1.663869e-28)
(6.374813e-05 -4.604806e-05 -3.03867e-27)
(7.110253e-05 -4.450465e-05 0)
(5.719492e-05 -5.382318e-05 5.179258e-25)
(6.449032e-05 -5.31523e-05 -1.017994e-23)
(5.719326e-05 -6.097882e-05 -5.585775e-28)
(4.996132e-05 -6.084697e-05 6.11798e-25)
(9.004818e-05 -1.077726e-05 -1.49807e-26)
(9.646944e-05 -5.679533e-06 -9.250277e-27)
(8.766409e-05 -2.179463e-05 1.688143e-25)
(9.470374e-05 -1.737727e-05 -1.510232e-23)
(8.386796e-05 -3.237944e-05 3.817398e-25)
(9.141931e-05 -2.890749e-05 -4.733971e-27)
(7.874191e-05 -4.245107e-05 -1.17334e-28)
(8.666596e-05 -3.990942e-05 -1.154566e-28)
(7.22542e-05 -5.202248e-05 -3.264163e-27)
(8.04783e-05 -5.038805e-05 1.259417e-27)
(6.491874e-05 -6.075143e-05 -3.425221e-27)
(7.314042e-05 -5.990941e-05 -1.351816e-27)
(6.489237e-05 -6.873261e-05 2.510009e-28)
(5.679717e-05 -6.854716e-05 7.090025e-25)
(0.0001018431 -1.227446e-05 -1.449334e-26)
(0.000109117 -6.47488e-06 -1.768836e-23)
(9.915158e-05 -2.474076e-05 -1.41947e-26)
(0.0001071081 -1.973942e-05 -1.709304e-23)
(9.488528e-05 -3.670638e-05 -4.612187e-27)
(0.0001034064 -3.276678e-05 -1.616853e-23)
(8.908702e-05 -4.808689e-05 1.248001e-27)
(9.808999e-05 -4.517067e-05 -4.779848e-27)
(8.196734e-05 -5.873183e-05 -5.112883e-24)
(9.125787e-05 -5.692923e-05 1.440206e-27)
(7.365214e-05 -6.852631e-05 -1.720363e-24)
(8.304043e-05 -6.76208e-05 -2.160676e-27)
(7.354372e-05 -7.746843e-05 3.843186e-27)
(6.445173e-05 -7.720342e-05 4.52224e-28)
(0.0001151948 -1.396366e-05 1.291374e-26)
(0.0001234416 -7.374286e-06 -5.556905e-27)
(0.0001121408 -2.805965e-05 -2.583455e-25)
(0.0001211427 -2.240906e-05 -1.947175e-23)
(0.0001073306 -4.156012e-05 -1.51414e-26)
(0.0001169436 -3.712566e-05 -1.856897e-23)
(0.0001008675 -5.432525e-05 -6.487018e-25)
(0.0001109254 -5.109894e-05 -1.739038e-23)
(9.294269e-05 -6.622624e-05 -3.792693e-27)
(0.0001032442 -6.420328e-05 1.861222e-28)
(8.335714e-05 -7.729295e-05 -5.561319e-28)
(9.396557e-05 -7.636002e-05 -1.315429e-23)
(8.3233e-05 -8.732559e-05 1.206781e-23)
(7.301652e-05 -8.69594e-05 9.499345e-25)
(0.0001303146 -1.587712e-05 -6.08476e-27)
(0.0001396744 -8.394066e-06 7.103597e-27)
(0.0001268345 -3.181948e-05 -2.869967e-25)
(0.000137034 -2.543501e-05 -6.085649e-27)
(0.0001213798 -4.707125e-05 -1.695153e-26)
(0.00013226 -4.20676e-05 -5.823838e-27)
(0.0001140797 -6.146304e-05 -1.114637e-26)
(0.0001254355 -5.783759e-05 -1.975572e-23)
(0.0001051305 -7.481613e-05 -4.493787e-27)
(0.0001167427 -7.257149e-05 6.063491e-27)
(9.427602e-05 -8.719395e-05 -4.508819e-27)
(0.0001062214 -8.619684e-05 -4.589014e-27)
(9.411434e-05 -9.842222e-05 -1.465915e-23)
(8.26143e-05 -9.796688e-05 -2.901988e-27)
(0.0001474464 -1.804792e-05 7.104881e-27)
(0.000158079 -9.551407e-06 2.616459e-23)
(0.0001434706 -3.608207e-05 0)
(0.0001550372 -2.886762e-05 0)
(0.0001372717 -5.331464e-05 1.842144e-28)
(0.0001495987 -4.767048e-05 0)
(0.000128989 -6.953891e-05 -9.256959e-25)
(0.0001418435 -6.547742e-05 2.272595e-23)
(0.0001188186 -8.45307e-05 6.188065e-27)
(0.0001319687 -8.210031e-05 2.156104e-23)
(0.0001065674 -9.831003e-05 -4.720275e-27)
(0.0001199867 -9.74805e-05 -5.93269e-27)
(0.0001064209 -0.000110793 -4.689676e-27)
(9.338686e-05 -0.0001103924 -9.368449e-27)
(0.000166868 -2.05126e-05 1.608033e-26)
(0.0001789563 -1.086544e-05 2.979467e-23)
(0.0001623168 -4.091758e-05 0)
(0.0001754433 -3.276221e-05 5.347926e-29)
(0.0001552644 -6.03948e-05 6.886575e-27)
(0.0001692399 -5.402137e-05 8.58578e-27)
(0.0001458702 -7.871081e-05 1.030232e-24)
(0.0001604298 -7.412381e-05 7.129541e-27)
(0.0001342787 -9.566055e-05 7.212714e-27)
(0.0001493025 -9.284192e-05 2.208748e-23)
(0.0001207302 -0.0001109648 -5.969892e-27)
(0.0001360007 -0.000110108 -1.564712e-23)
(0.0001206404 -0.0001250395 0)
(0.0001055735 -0.000124448 4.543926e-27)
(0.0001888936 -2.331065e-05 9.154906e-27)
(0.0002026451 -1.235681e-05 9.096019e-27)
(0.0001836733 -4.640115e-05 -4.210663e-25)
(0.0001985785 -3.718044e-05 -9.96577e-27)
(0.0001756352 -6.841037e-05 8.829086e-27)
(0.0001914886 -6.122304e-05 3.128224e-23)
(0.0001649694 -8.904528e-05 -1.242398e-24)
(0.0001814431 -8.392457e-05 2.418373e-28)
(0.0001519292 -0.0001080059 -6.406292e-27)
(0.000168768 -0.0001049907 -2.725095e-23)
(0.0001368029 -0.0001251142 -6.900049e-27)
(0.0001537005 -0.000124169 -5.103676e-27)
(0.0001362146 -0.0001412801 9.265693e-28)
(0.0001190612 -0.0001403386 4.227664e-27)
(0.0002138786 -2.648547e-05 -1.001282e-26)
(0.0002295278 -1.404667e-05 -1.16658e-26)
(0.0002078833 -5.262171e-05 -4.120642e-28)
(0.0002248164 -4.218768e-05 -3.728919e-23)
(0.0001987107 -7.750826e-05 9.617341e-27)
(0.0002167103 -6.938647e-05 2.048021e-26)
(0.0001865639 -0.0001008142 -7.717497e-27)
(0.0002052632 -9.50442e-05 0)
(0.0001717528 -0.0001222101 -3.305392e-24)
(0.0001908421 -0.0001188277 -8.494892e-27)
(0.0001545682 -0.000141443 -4.538411e-24)
(0.0001737137 -0.0001404144 1.623e-27)
(0.0001537613 -0.0001596615 1.972494e-27)
(0.0001342536 -0.000158505 -1.400686e-28)
(0.0002422224 -3.00781e-05 -2.300583e-26)
(0.0002600254 -1.595563e-05 -4.317469e-23)
(0.0002353374 -5.966688e-05 -4.850962e-28)
(0.0002545764 -4.784081e-05 -2.417718e-26)
(0.0002248725 -8.781078e-05 1.087189e-26)
(0.0002453071 -7.861903e-05 4.055199e-23)
(0.0002110454 -0.000114141 -7.755833e-28)
(0.0002322721 -0.0001076256 0)
(0.0001941945 -0.0001382812 3.827795e-24)
(0.000215866 -0.0001344952 -7.756942e-28)
(0.0001746088 -0.0001599116 -5.165401e-24)
(0.0001963677 -0.0001589035 -9.71777e-27)
(0.0001736464 -0.0001808096 5.205086e-28)
(0.0001515599 -0.0001790044 7.515267e-27)
(0.0002743712 -3.411676e-05 -2.604867e-26)
(0.0002946048 -1.808822e-05 -2.820912e-26)
(0.0002664764 -6.762257e-05 -5.344524e-28)
(0.0002883358 -5.419696e-05 -4.875193e-23)
(0.0002545389 -9.945177e-05 1.231133e-26)
(0.0002777302 -8.903241e-05 1.230169e-26)
(0.0002388147 -0.0001292131 0)
(0.0002629067 -0.0001218279 1.232149e-26)
(0.0002196831 -0.0001564988 -9.69985e-27)
(0.0002442749 -0.0001521802 -9.962393e-28)
(0.0001973991 -0.0001810517 -1.040504e-26)
(0.000222286 -0.0001796578 -3.093215e-23)
(0.0001972158 -0.0002040675 9.233955e-24)
(0.0001723008 -0.0002024257 3.273426e-23)
(0.0003108124 -3.860644e-05 3.965529e-25)
(0.0003337244 -2.05125e-05 -5.156349e-23)
(0.0003017832 -7.658042e-05 -1.463019e-26)
(0.000326628 -6.118047e-05 -1.46666e-26)
(0.0002881763 -0.0001125667 1.231141e-26)
(0.0003144713 -0.000100696 -1.608226e-26)
(0.0002702992 -0.0001462124 4.346761e-24)
(0.0002976522 -0.0001378333 5.081143e-23)
(0.0002485166 -0.000176976 -2.1779e-26)
(0.0002764352 -0.0001722166 -1.472306e-26)
(0.0002231307 -0.0002042521 -6.382429e-24)
(0.0002511791 -0.0002033029 -4.629069e-23)
(0.0002219549 -0.000230439 -4.434023e-23)
(0.0001944412 -0.0002272145 -2.277358e-23)
(0.0003521398 -4.349348e-05 -1.705764e-26)
(0.0003781608 -2.310084e-05 -1.690234e-26)
(0.0003419094 -8.650934e-05 -1.612234e-26)
(0.0003701315 -6.901803e-05 0)
(0.0003263652 -0.0001272776 2.031068e-24)
(0.0003561886 -0.0001136759 -6.087671e-23)
(0.0003060896 -0.0001654261 7.015138e-28)
(0.0003371621 -0.0001557823 1.440333e-26)
(0.0002812966 -0.0002004453 -3.854543e-26)
(0.0003131736 -0.0001948722 -5.611842e-23)
(0.00025217 -0.000231765 -3.575024e-26)
(0.0002844945 -0.000230469 -5.47393e-23)
(0.0002510841 -0.0002619994 1.455914e-27)
(0.0002188075 -0.0002587045 -2.833695e-26)
(0.0003988409 -4.897599e-05 0)
(0.0004281868 -2.596129e-05 -2.186215e-26)
(0.0003871364 -9.745996e-05 -3.581193e-26)
(0.0004188606 -7.794605e-05 2.084431e-26)
(0.0003697261 -0.0001436615 -3.567769e-26)
(0.0004034638 -0.0001276527 -7.032081e-23)
(0.000346886 -0.0001869429 -3.109995e-26)
(0.0003820706 -0.0001755616 0)
(0.0003189399 -0.0002269011 -4.520315e-26)
(0.0003551857 -0.0002201514 -6.346908e-23)
(0.0002860023 -0.0002630315 -1.794205e-27)
(0.0003230111 -0.0002609583 -1.407052e-26)
(0.0002855543 -0.0002974288 5.129121e-23)
(0.0002480247 -0.0002947351 1.250475e-26)
(0.0004512597 -5.52686e-05 1.211113e-24)
(0.000484641 -2.915366e-05 -7.178647e-23)
(0.0004383712 -0.0001092755 4.087219e-26)
(0.0004742041 -8.740676e-05 6.711075e-23)
(0.0004191511 -0.0001613162 1.98872e-26)
(0.0004571401 -0.0001434479 1.314798e-22)
(0.0003934655 -0.0002107211 -1.767255e-26)
(0.0004333783 -0.0001966612 4.365634e-26)
(0.0003621315 -0.0002563227 -1.766837e-26)
(0.0004031429 -0.0002479571 -3.602809e-26)
(0.0003251632 -0.0002979145 1.012563e-26)
(0.0003673297 -0.0002949318 1.937118e-27)
(0.0003250377 -0.0003372757 7.906465e-27)
(0.0002823494 -0.0003343402 2.075207e-23)
(0.0005106198 -6.181655e-05 -7.574755e-28)
(0.000547715 -3.255171e-05 -2.457124e-26)
(0.0004960387 -0.0001222339 9.196562e-26)
(0.0005361255 -9.721282e-05 2.408513e-26)
(0.0004751206 -0.0001803374 1.126596e-25)
(0.0005177478 -0.000160158 6.610513e-23)
(0.0004468066 -0.0002365025 -6.90646e-24)
(0.0004921418 -0.000219913 1.513347e-22)
(0.0004117408 -0.000288774 -1.64259e-26)
(0.0004580337 -0.0002781156 -8.528681e-23)
(0.0003705216 -0.0003371163 -8.154351e-24)
(0.0004186018 -0.000332429 6.304393e-27)
(0.0003715114 -0.0003823087 7.8808e-27)
(0.0003219971 -0.0003802842 2.239049e-23)
(0.0005766262 -6.891363e-05 -9.332948e-25)
(0.000617959 -3.622982e-05 -5.847603e-30)
(0.0005608125 -0.0001358744 2.714923e-26)
(0.0006047632 -0.0001080042 -1.809027e-29)
(0.000538028 -0.0002005042 -5.967939e-24)
(0.0005846617 -0.0001775542 5.533096e-26)
(0.0005066538 -0.0002638655 7.163959e-24)
(0.0005566083 -0.0002455496 6.164869e-26)
(0.0004687085 -0.0003239891 -2.196151e-26)
(0.0005206196 -0.0003093231 -4.557737e-26)
(0.0004234375 -0.0003803359 -1.515358e-23)
(0.0004777491 -0.000372636 2.295962e-26)
(0.0004264214 -0.0004318622 1.008474e-26)
(0.0003694493 -0.0004321434 -2.095914e-23)
(0.0006498926 -7.653954e-05 1.054617e-24)
(0.0006958958 -4.011305e-05 -5.757592e-29)
(0.0006324776 -0.0001507987 2.805054e-26)
(0.0006808951 -0.0001194355 -1.766509e-28)
(0.0006074287 -0.0002229128 3.297667e-24)
(0.0006594219 -0.0001961854 8.139352e-23)
(0.0005748448 -0.0002926423 3.379232e-23)
(0.0006300519 -0.0002716423 7.399314e-23)
(0.0005344106 -0.0003605832 1.125454e-23)
(0.0005922456 -0.0003438209 3.119068e-26)
(0.0004852512 -0.0004268026 1.857925e-26)
(0.0005463888 -0.0004137943 1.201516e-22)
(0.0004909871 -0.0004849771 0)
(0.0004263355 -0.000488996 -1.609583e-27)
(0.0007308259 -8.444736e-05 0)
(0.0007817791 -4.414123e-05 -1.399897e-28)
(0.0007115966 -0.0001660295 3.315755e-26)
(0.0007644733 -0.0001312134 4.176834e-28)
(0.0006853561 -0.0002450463 6.818526e-26)
(0.000741071 -0.0002151645 3.457405e-26)
(0.00065105 -0.0003226688 -3.633366e-24)
(0.0007106345 -0.000297068 3.492281e-26)
(0.000609336 -0.0003987298 -2.279574e-23)
(0.0006725463 -0.0003785856 5.690123e-23)
(0.0005571915 -0.0004753787 4.637845e-26)
(0.0006261289 -0.0004575052 4.092726e-26)
(0.0005660211 -0.0005405554 -1.424597e-26)
(0.000493323 -0.000549824 -2.045135e-26)
(0.0008195695 -9.259188e-05 2.82491e-24)
(0.0008757832 -4.823945e-05 -4.433411e-26)
(0.0007979812 -0.0001817413 -4.735399e-24)
(0.000855634 -0.0001432227 8.873149e-28)
(0.0007699742 -0.0002680786 1.408509e-27)
(0.0008299341 -0.000234743 -4.028565e-26)
(0.000734813 -0.0003526659 6.643985e-26)
(0.0007977787 -0.0003241296 0)
(0.0006923385 -0.0004365413 6.309897e-26)
(0.0007585219 -0.000412988 8.610979e-23)
(0.0006368059 -0.0005236 -1.764334e-23)
(0.0007105755 -0.0005045172 -1.3577e-26)
(0.0006496936 -0.0005966818 -8.843261e-26)
(0.0005683789 -0.0006134056 -2.765681e-23)
(0.0009161006 -0.0001007047 -2.986302e-24)
(0.000977697 -5.225741e-05 -8.995103e-23)
(0.0008917878 -0.0001976952 -4.116563e-26)
(0.0009543975 -0.0001550939 -4.709346e-26)
(0.0008618591 -0.0002918962 -4.170592e-26)
(0.0009264093 -0.0002546328 -9.457115e-23)
(0.0008255437 -0.0003847216 4.287125e-26)
(0.000892866 -0.0003520733 -4.624357e-27)
(0.0007807247 -0.0004783269 9.722172e-24)
(0.0008531366 -0.0004494 3.097439e-26)
(0.0007249041 -0.0005739809 -2.574949e-22)
(0.0008032909 -0.0005510791 -2.855327e-23)
(0.0007382161 -0.0006578366 -1.108271e-25)
(0.0006479671 -0.0006805123 -1.250073e-22)
(0.001020234 -0.0001083377 -2.683569e-24)
(0.001086817 -5.629352e-05 -4.933128e-26)
(0.0009933441 -0.0002136539 -9.410663e-26)
(0.001060951 -0.0001660531 -9.482544e-23)
(0.0009613346 -0.0003158239 -5.119874e-26)
(0.00103045 -0.0002740558 5.100568e-27)
(0.0009230858 -0.0004163066 -2.379209e-24)
(0.000994334 -0.0003799734 -2.066286e-27)
(0.0008757039 -0.0005178096 -1.587549e-23)
(0.0009509952 -0.0004866221 -6.535921e-26)
(0.0008154607 -0.0006244828 -8.558286e-23)
(0.0008958513 -0.0005991008 8.48828e-27)
(0.0008220494 -0.0007287129 -3.608649e-26)
(0.0007271611 -0.0007498491 -2.875127e-22)
(0.001131745 -0.000115113 5.167582e-26)
(0.001203099 -5.959249e-05 6.100532e-26)
(0.001102718 -0.0002281742 4.663353e-24)
(0.001174672 -0.000176593 9.079624e-23)
(0.001067919 -0.000338771 -1.359449e-24)
(0.001141399 -0.0002902109 8.411531e-23)
(0.001026544 -0.0004482862 -5.083043e-26)
(0.001101831 -0.0004057982 1.124453e-25)
(0.0009759389 -0.0005620521 -3.675005e-23)
(0.001055735 -0.0005245526 -1.368551e-22)
(0.0009091467 -0.0006870966 -8.527795e-27)
(0.000998394 -0.0006532122 3.056961e-26)
(0.0009181787 -0.0008044558 -2.36464e-26)
(0.0008163289 -0.0008307256 -1.043792e-25)
(0.001248331 -0.0001209415 1.740881e-25)
(0.0013226 -6.11251e-05 -3.608439e-23)
(0.001216854 -0.0002393701 7.279524e-24)
(0.001292074 -0.0001834588 1.122453e-25)
(0.001180361 -0.0003570668 1.605287e-25)
(0.001256686 -0.0003035874 5.024527e-26)
(0.001136947 -0.0004780462 5.034632e-26)
(0.001216646 -0.0004259255 1.831796e-22)
(0.001084641 -0.0006064565 -5.168173e-23)
(0.001169602 -0.0005610194 5.569453e-26)
(0.001013933 -0.0007508548 1.595937e-26)
(0.001111991 -0.0007117394 1.421668e-22)
(0.001026818 -0.0008923707 -9.511689e-27)
(0.000906748 -0.0009186435 -4.356424e-22)
(0.001364688 -0.0001232471 2.578376e-25)
(0.001436777 -6.050482e-05 -5.546645e-27)
(0.001331392 -0.0002461192 -6.430947e-28)
(0.001406681 -0.0001840409 6.745747e-28)
(0.001295939 -0.0003696748 2.314469e-27)
(0.001372882 -0.0003107593 2.267064e-27)
(0.001255994 -0.000503086 1.189459e-25)
(0.001338274 -0.0004437987 8.998677e-23)
(0.001204352 -0.0006529722 2.329398e-25)
(0.001297546 -0.0005936969 5.6145e-24)
(0.001126421 -0.0008262238 1.869806e-22)
(0.001240072 -0.0007833406 -1.501285e-22)
(0.00113346 -0.001023275 6.298206e-26)
(0.000992651 -0.001026893 5.101888e-27)
(0.001471356 -0.0001221098 -7.055777e-26)
(0.001535185 -5.741745e-05 3.275745e-22)
(0.00144226 -0.0002464848 4.667859e-24)
(0.001510796 -0.000179966 1.305424e-27)
(0.001412047 -0.0003765653 -1.493888e-25)
(0.00148505 -0.0003085767 6.767654e-27)
(0.001380471 -0.0005221242 -3.485092e-22)
(0.00146207 -0.0004550676 -1.449252e-25)
(0.001331251 -0.0006980451 1.546107e-25)
(0.001432381 -0.0006351407 2.772647e-26)
(0.001235982 -0.0009134377 1.08422e-25)
(0.001365878 -0.000877601 -3.80939e-26)
(0.001223493 -0.00121039 -3.203181e-22)
(0.00106182 -0.001156294 -2.06417e-26)
(0.001561411 -0.0001174168 -7.616272e-26)
(0.001609614 -5.267604e-05 -7.61731e-26)
(0.001542009 -0.000240517 4.520605e-27)
(0.001597927 -0.0001701988 2.612046e-27)
(0.001524276 -0.0003729304 8.919323e-23)
(0.00158409 -0.0002982142 9.068667e-27)
(0.001500133 -0.0005348686 -6.034102e-26)
(0.001579422 -0.0004585679 6.68279e-27)
(0.001451272 -0.0007446847 -4.187062e-21)
(0.001550401 -0.0006919364 8.109328e-27)
(0.00133929 -0.001012721 5.875913e-26)
(0.001479265 -0.001009762 8.008271e-26)
(0.00132488 -0.001423116 -1.888098e-21)
(0.001133604 -0.001326163 5.926082e-27)
(0.001629351 -0.0001089674 2.606872e-27)
(0.001657657 -4.682371e-05 0)
(0.001622801 -0.0002250872 3.031033e-23)
(0.001660508 -0.0001555893 7.159939e-27)
(0.001617168 -0.0003562349 4.535847e-27)
(0.001659375 -0.0002819831 1.296788e-26)
(0.001599402 -0.0005390263 7.349901e-26)
(0.001664024 -0.0004676403 -7.678189e-29)
(0.001543076 -0.0007873794 2.520175e-25)
(0.001631597 -0.000758735 -1.087313e-21)
(0.001440764 -0.001098817 1.640618e-20)
(0.001554609 -0.001160223 -1.267368e-21)
(0.001436848 -0.001650247 2.29564e-25)
(0.001222048 -0.001467322 -7.636944e-21)
(0.0016712 -9.807898e-05 4.506314e-27)
(0.001678788 -3.973443e-05 -8.05606e-26)
(0.001674803 -0.0002014597 1.979094e-22)
(0.001693837 -0.0001391005 8.814436e-26)
(0.001673523 -0.000332987 8.478311e-27)
(0.001698128 -0.0002737927 1.551716e-26)
(0.001654147 -0.0005374919 1.729038e-25)
(0.001692837 -0.0004968749 8.105248e-27)
(0.001599272 -0.0008133839 4.175027e-21)
(0.001661669 -0.0008361829 -1.469369e-21)
(0.001501041 -0.001155858 1.729474e-25)
(0.001597168 -0.001287213 -1.956517e-21)
(0.001496451 -0.001846389 1.09778e-25)
(0.001368263 -0.001589103 -7.860622e-26)
(0.001682724 -8.399772e-05 -3.920573e-25)
(0.001668838 -3.280109e-05 4.283299e-22)
(0.001690929 -0.0001786141 1.263376e-22)
(0.001692592 -0.0001296922 -6.06442e-22)
(0.001679113 -0.0003209393 7.87145e-22)
(0.001688847 -0.0002903492 8.66497e-26)
(0.001652775 -0.0005354123 -5.504519e-26)
(0.001658907 -0.0005571712 -1.10993e-26)
(0.001596609 -0.0008225774 1.361872e-27)
(0.001635244 -0.0009293149 4.18874e-21)
(0.001517933 -0.00115595 1.697366e-25)
(0.001561162 -0.001405328 3.04988e-25)
(0.001495168 -0.001970976 -3.159118e-21)
(0.001402265 -0.0015661 1.454182e-20)
(0.001656846 -7.246147e-05 1.954948e-23)
(0.001623854 -3.003441e-05 -7.876803e-26)
(0.001661536 -0.0001707936 2.475273e-22)
(0.001647854 -0.0001403058 6.453574e-27)
(0.001634885 -0.0003262651 6.081132e-26)
(0.001628355 -0.0003378562 -8.171462e-22)
(0.001587889 -0.000546726 -4.988289e-21)
(0.001583555 -0.0006411186 -1.878761e-26)
(0.001537581 -0.0008330817 1.53297e-20)
(0.00152116 -0.001048312 1.50255e-21)
(0.001479015 -0.001152051 4.58036e-20)
(0.001447016 -0.001530467 1.90006e-25)
(0.00146101 -0.002075118 3.088824e-25)
(0.001378514 -0.001548752 3.823486e-25)
(0.001590153 -7.286767e-05 -7.441031e-26)
(0.001540622 -3.720159e-05 1.432921e-29)
(0.001584167 -0.0001848401 6.655937e-26)
(0.001555841 -0.0001771464 6.09702e-22)
(0.00154038 -0.0003514894 1.41115e-25)
(0.001519381 -0.0004149608 -7.88771e-22)
(0.001474431 -0.0005747788 -8.964932e-26)
(0.001456685 -0.0007525955 -5.055848e-29)
(0.001396649 -0.0008404242 -1.049495e-20)
(0.001376426 -0.001176199 -1.738889e-25)
(0.001318186 -0.00113061 -1.276434e-26)
(0.001288188 -0.001663895 -6.379022e-26)
(0.001206507 -0.002213048 -2.964469e-21)
(0.001290934 -0.001475233 5.612344e-26)
(0.001482907 -9.187367e-05 -6.778791e-26)
(0.001420531 -5.717999e-05 -1.703195e-29)
(0.001463005 -0.0002241773 -6.762086e-26)
(0.00142366 -0.000241328 -6.899676e-26)
(0.001401366 -0.0004032734 1.995089e-28)
(0.001371044 -0.0005165453 6.43789e-22)
(0.001318339 -0.0006286992 -8.409831e-26)
(0.001291645 -0.0008856942 4.327383e-26)
(0.001224421 -0.000879369 -1.278638e-20)
(0.001195597 -0.001327757 1.218221e-21)
(0.001126206 -0.001140577 -9.900645e-26)
(0.001093781 -0.001819921 -1.789402e-21)
(0.0009897344 -0.002349134 -2.624324e-21)
(0.001045244 -0.001426969 -4.763468e-20)
(0.001339455 -0.0001270876 -1.752459e-29)
(0.001261779 -8.774944e-05 2.747896e-26)
(0.001309697 -0.0002875917 -1.513315e-25)
(0.001254137 -0.0003278015 -2.939717e-31)