/*--------------------------------*- C++ -*----------------------------------*\
| =========                 |                                                 |
| \\      /  F ield         | OpenFOAM: The Open Source CFD Toolbox           |
|  \\    /   O peration     | Version:  2206                                  |
|   \\  /    A nd           | Website:  www.openfoam.com                      |
|    \\/     M anipulation  |                                                 |
\*---------------------------------------------------------------------------*/
FoamFile
{
    version     2.0;
    format      ascii;
    arch        "LSB;label=32;scalar=64";
    class       volScalarField;
    location    "180";
    object      p_rbgh;
}
// * * * * * * * * * * * * * * * * * * * * * * * * * * * * * * * * * * * * * //

dimensions      [1 -1 -2 0 0 0 0];

internalField   nonuniform List<scalar> 
120
(
23.2045
23.2022
23.197
23.1891
23.1779
23.1631
23.1438
23.1189
23.0871
23.0461
22.9942
22.9363
22.882
22.6425
22.3863
22.1369
21.8905
21.6449
21.3995
21.1542
20.909
20.6637
20.4184
20.1732
19.9279
19.6827
19.4374
19.1922
18.9469
18.7017
18.4564
18.2112
17.9659
17.7207
17.4754
17.2302
16.9849
16.7397
16.4944
16.2492
16.0039
15.7587
15.5134
15.2682
15.0229
14.7777
14.5324
14.2872
14.0419
13.7967
13.5514
13.3062
13.0609
12.8157
12.5704
12.3252
12.0799
11.8347
11.5894
11.3442
11.0989
10.8537
10.6084
10.3632
10.1179
9.8727
9.62745
9.3822
9.13695
8.8917
8.64645
8.4012
8.15595
7.9107
7.66545
7.4202
7.17495
6.9297
6.68445
6.4392
6.19395
5.9487
5.70345
5.4582
5.21295
4.9677
4.72245
4.4772
4.23195
3.9867
3.74145
3.4962
3.25095
3.0057
2.76045
2.5152
2.26995
2.0247
1.77945
1.5342
1.28892
1.04368
0.798968
0.553509
0.295627
0.0554786
0.0058702
-0.00284174
-0.000780487
0.000108969
7.28171e-05
1.30928e-06
-5.31457e-06
-7.97007e-07
2.96924e-07
9.73828e-08
-1.42819e-08
-1.29873e-08
-4.13582e-09
-6.73325e-10
)
;

boundaryField
{
    inlet
    {
        type            cyclic;
    }
    outlet
    {
        type            cyclic;
    }
    top
    {
        type            fixedValue;
        value           uniform 0;
    }
    bottom
    {
        type            fixedFluxPressure;
        gradient        uniform 0;
        value           uniform 23.2045;
    }
    frontAndBackPlanes
    {
        type            empty;
    }
}


// ************************************************************************* //
