/*--------------------------------*- C++ -*----------------------------------*\
| =========                 |                                                 |
| \\      /  F ield         | OpenFOAM: The Open Source CFD Toolbox           |
|  \\    /   O peration     | Version:  2206                                  |
|   \\  /    A nd           | Website:  www.openfoam.com                      |
|    \\/     M anipulation  |                                                 |
\*---------------------------------------------------------------------------*/
FoamFile
{
    version     2.0;
    format      ascii;
    arch        "LSB;label=32;scalar=64";
    class       surfaceScalarField;
    location    "180";
    object      phi.b;
}
// * * * * * * * * * * * * * * * * * * * * * * * * * * * * * * * * * * * * * //

dimensions      [0 3 -1 0 0 0 0];

oriented        oriented;

internalField   nonuniform List<scalar> 
119
(
9.71423e-15
2.10435e-14
3.28744e-14
4.64943e-14
6.23046e-14
8.09209e-14
1.05842e-13
1.36574e-13
1.78004e-13
2.27562e-13
2.57801e-13
2.68282e-13
1.54333e-12
2.03883e-12
2.21148e-12
2.28466e-12
2.31018e-12
2.31887e-12
2.32186e-12
2.32286e-12
2.32317e-12
2.32327e-12
2.3233e-12
2.32331e-12
2.32331e-12
2.32331e-12
2.32331e-12
2.32331e-12
2.32331e-12
2.32331e-12
2.32331e-12
2.32331e-12
2.32331e-12
2.32331e-12
2.32331e-12
2.32331e-12
2.32331e-12
2.32331e-12
2.32331e-12
2.32331e-12
2.32331e-12
2.32331e-12
2.32331e-12
2.32331e-12
2.32331e-12
2.32331e-12
2.32331e-12
2.32331e-12
2.32331e-12
2.32331e-12
2.32331e-12
2.32331e-12
2.32331e-12
2.32331e-12
2.32331e-12
2.32331e-12
2.32331e-12
2.32331e-12
2.32331e-12
2.32331e-12
2.32331e-12
2.32331e-12
2.32331e-12
2.32331e-12
2.32331e-12
2.32331e-12
2.32331e-12
2.32331e-12
2.32331e-12
2.32331e-12
2.32331e-12
2.32331e-12
2.32331e-12
2.32331e-12
2.32331e-12
2.32331e-12
2.32331e-12
2.32331e-12
2.32331e-12
2.32331e-12
2.32331e-12
2.32331e-12
2.32331e-12
2.32331e-12
2.32331e-12
2.32331e-12
2.32331e-12
2.32331e-12
2.32331e-12
2.32331e-12
2.32331e-12
2.32331e-12
2.32331e-12
2.32331e-12
2.32331e-12
2.32331e-12
2.32331e-12
2.32331e-12
2.32336e-12
2.32329e-12
2.32261e-12
2.3241e-12
2.32703e-12
2.2836e-12
3.06666e-12
8.70207e-12
9.08408e-14
4.60012e-16
1.15428e-17
-5.07703e-18
-9.3973e-19
6.53542e-19
3.60201e-18
4.38264e-18
3.93726e-18
2.90621e-18
-5.31224e-18
-6.07345e-19
-2.80851e-18
)
;

boundaryField
{
    inlet
    {
        type            cyclic;
        value           nonuniform List<scalar> 
120
(
6.3252e-28
1.89938e-27
3.14266e-27
4.44522e-27
5.72815e-27
7.02874e-27
8.18489e-27
9.79452e-27
1.16172e-26
1.31995e-26
1.53428e-26
1.69323e-26
1.92252e-26
4.23568e-25
3.70307e-25
3.2253e-25
3.21997e-25
3.49478e-25
3.86681e-25
4.2024e-25
4.40647e-25
4.44363e-25
4.37134e-25
4.3628e-25
-1.93654e-25
-8.22784e-25
-1.48259e-24
-1.86437e-24
-2.28429e-24
-2.75262e-24
-2.66088e-24
-2.01104e-24
-1.41547e-24
-8.60779e-25
-3.47206e-25
1.39533e-25
-1.15907e-26
-8.1438e-25
-1.01802e-24
-1.91467e-24
-1.59962e-24
-1.97547e-24
-1.7621e-24
-1.59686e-24
-1.44983e-24
-1.97252e-24
-1.28755e-24
-6.71641e-25
5.58611e-25
5.2895e-25
5.04344e-25
4.56148e-25
3.82943e-25
2.82781e-25
1.66964e-25
-5.93353e-25
-1.3773e-24
-2.20405e-24
-3.10729e-24
-2.84166e-24
-2.6624e-24
-2.54593e-24
-2.49639e-24
-2.51789e-24
-2.64201e-24
-1.5929e-24
-1.87368e-24
-2.20767e-24
-2.62481e-24
-3.12716e-24
-3.74469e-24
-3.22866e-24
-2.83125e-24
-2.5262e-24
-2.31581e-24
-2.20309e-24
-2.19151e-24
-2.28499e-24
-2.48776e-24
-2.80423e-24
-3.23876e-24
-3.79542e-24
-4.4777e-24
-5.28823e-24
-6.229e-24
-7.35703e-24
-6.17033e-24
-5.16683e-24
-4.28542e-24
-3.52006e-24
-2.86413e-24
-2.31022e-24
-1.85062e-24
-1.47758e-24
-1.18367e-24
-9.60664e-25
-7.98308e-25
-6.361e-25
-3.86467e-25
-1.93171e-25
-8.93289e-26
-3.78697e-26
-1.46335e-26
-5.19579e-27
-1.8511e-27
-8.24874e-28
-7.32388e-28
-5.85812e-28
-4.6836e-28
-3.74368e-28
-2.98991e-28
-2.38319e-28
-1.89215e-28
-1.49168e-28
-1.16159e-28
-8.85554e-29
-6.50227e-29
-4.44469e-29
-2.5875e-29
-8.46257e-30
)
;
    }
    outlet
    {
        type            cyclic;
        value           nonuniform List<scalar> 
120
(
-6.3252e-28
-1.89938e-27
-3.14266e-27
-4.44522e-27
-5.72815e-27
-7.02874e-27
-8.18489e-27
-9.79452e-27
-1.16172e-26
-1.31995e-26
-1.53428e-26
-1.69323e-26
-1.92252e-26
-4.23568e-25
-3.70307e-25
-3.2253e-25
-3.21997e-25
-3.49478e-25
-3.86681e-25
-4.2024e-25
-4.40647e-25
-4.44363e-25
-4.37134e-25
-4.3628e-25
1.93654e-25
8.22784e-25
1.48259e-24
1.86437e-24
2.28429e-24
2.75262e-24
2.66088e-24
2.01104e-24
1.41547e-24
8.60779e-25
3.47206e-25
-1.39533e-25
1.15907e-26
8.1438e-25
1.01802e-24
1.91467e-24
1.59962e-24
1.97547e-24
1.7621e-24
1.59686e-24
1.44983e-24
1.97252e-24
1.28755e-24
6.71641e-25
-5.58611e-25
-5.2895e-25
-5.04344e-25
-4.56148e-25
-3.82943e-25
-2.82781e-25
-1.66964e-25
5.93353e-25
1.3773e-24
2.20405e-24
3.10729e-24
2.84166e-24
2.6624e-24
2.54593e-24
2.49639e-24
2.51789e-24
2.64201e-24
1.5929e-24
1.87368e-24
2.20767e-24
2.62481e-24
3.12716e-24
3.74469e-24
3.22866e-24
2.83125e-24
2.5262e-24
2.31581e-24
2.20309e-24
2.19151e-24
2.28499e-24
2.48776e-24
2.80423e-24
3.23876e-24
3.79542e-24
4.4777e-24
5.28823e-24
6.229e-24
7.35703e-24
6.17033e-24
5.16683e-24
4.28542e-24
3.52006e-24
2.86413e-24
2.31022e-24
1.85062e-24
1.47758e-24
1.18367e-24
9.60664e-25
7.98308e-25
6.361e-25
3.86467e-25
1.93171e-25
8.93289e-26
3.78697e-26
1.46335e-26
5.19579e-27
1.8511e-27
8.24874e-28
7.32388e-28
5.85812e-28
4.6836e-28
3.74368e-28
2.98991e-28
2.38319e-28
1.89215e-28
1.49168e-28
1.16159e-28
8.85554e-29
6.50227e-29
4.44469e-29
2.5875e-29
8.46257e-30
)
;
    }
    top
    {
        type            fixedValue;
        value           uniform 0;
    }
    bottom
    {
        type            fixedValue;
        value           uniform 0;
    }
    frontAndBackPlanes
    {
        type            empty;
        value           nonuniform List<scalar> 0();
    }
}


// ************************************************************************* //
