/*--------------------------------*- C++ -*----------------------------------*\
| =========                 |                                                 |
| \\      /  F ield         | OpenFOAM: The Open Source CFD Toolbox           |
|  \\    /   O peration     | Version:  2206                                  |
|   \\  /    A nd           | Website:  www.openfoam.com                      |
|    \\/     M anipulation  |                                                 |
\*---------------------------------------------------------------------------*/
FoamFile
{
    version     2.0;
    format      ascii;
    arch        "LSB;label=32;scalar=64";
    class       surfaceScalarField;
    location    "180";
    object      phi.a;
}
// * * * * * * * * * * * * * * * * * * * * * * * * * * * * * * * * * * * * * //

dimensions      [0 3 -1 0 0 0 0];

oriented        oriented;

internalField   nonuniform List<scalar> 
119
(
-6.71582e-15
-1.45704e-14
-2.28014e-14
-3.23169e-14
-4.34e-14
-5.65273e-14
-7.41725e-14
-9.61014e-14
-1.25851e-13
-1.61704e-13
-1.83972e-13
-2.01248e-13
-1.29451e-12
-1.88662e-12
-2.14668e-12
-2.25945e-12
-2.3013e-12
-2.31589e-12
-2.32089e-12
-2.32255e-12
-2.32308e-12
-2.32324e-12
-2.32329e-12
-2.3233e-12
-2.32331e-12
-2.32331e-12
-2.32331e-12
-2.32331e-12
-2.32331e-12
-2.32331e-12
-2.32331e-12
-2.32331e-12
-2.32331e-12
-2.32331e-12
-2.32331e-12
-2.32331e-12
-2.32331e-12
-2.32331e-12
-2.32331e-12
-2.32331e-12
-2.32331e-12
-2.32331e-12
-2.32331e-12
-2.32331e-12
-2.32331e-12
-2.32331e-12
-2.32331e-12
-2.32331e-12
-2.32331e-12
-2.32331e-12
-2.32331e-12
-2.32331e-12
-2.32331e-12
-2.32331e-12
-2.32331e-12
-2.32331e-12
-2.32331e-12
-2.32331e-12
-2.32331e-12
-2.32331e-12
-2.32331e-12
-2.32331e-12
-2.32331e-12
-2.32331e-12
-2.32331e-12
-2.32331e-12
-2.32331e-12
-2.32331e-12
-2.32331e-12
-2.32331e-12
-2.32331e-12
-2.32331e-12
-2.32331e-12
-2.32331e-12
-2.32331e-12
-2.32331e-12
-2.32331e-12
-2.32331e-12
-2.32331e-12
-2.32331e-12
-2.32331e-12
-2.32331e-12
-2.32331e-12
-2.32331e-12
-2.32331e-12
-2.32331e-12
-2.32331e-12
-2.32331e-12
-2.32331e-12
-2.32331e-12
-2.32331e-12
-2.32331e-12
-2.32331e-12
-2.32331e-12
-2.32331e-12
-2.32331e-12
-2.32331e-12
-2.3233e-12
-2.32342e-12
-2.32349e-12
-2.32187e-12
-2.32027e-12
-2.33238e-12
-2.35674e-12
-3.89926e-12
-3.52315e-11
-1.0672e-10
-1.14921e-10
-8.34455e-11
-7.50472e-11
-7.9119e-11
-8.10439e-11
-8.20054e-11
-8.23254e-11
-8.2372e-11
-8.2376e-11
-8.2376e-11
-8.23727e-11
-8.20704e-11
)
;

boundaryField
{
    inlet
    {
        type            cyclic;
        value           nonuniform List<scalar> 
120
(
6.32522e-28
1.89951e-27
3.16992e-27
4.44535e-27
5.72816e-27
7.02963e-27
8.37363e-27
9.7939e-27
1.1296e-26
1.31956e-26
1.53423e-26
1.64056e-26
1.67361e-26
4.23585e-25
3.70307e-25
3.22528e-25
3.21997e-25
3.49484e-25
3.86699e-25
4.20277e-25
4.40688e-25
4.44341e-25
4.36954e-25
4.19725e-25
-1.93867e-25
-8.22724e-25
-1.47429e-24
-1.86431e-24
-2.28415e-24
-2.73588e-24
-2.64414e-24
-2.0109e-24
-1.41547e-24
-8.60781e-25
-3.47347e-25
1.22793e-25
-2.81948e-26
-7.98047e-25
-1.03422e-24
-1.88173e-24
-1.61582e-24
-1.959e-24
-1.76196e-24
-1.59699e-24
-1.46616e-24
-1.93944e-24
-1.28715e-24
-6.55306e-25
5.25537e-25
5.2868e-25
5.04341e-25
4.56147e-25
3.82941e-25
2.82645e-25
1.50358e-25
-5.9349e-25
-1.3773e-24
-2.20378e-24
-3.07409e-24
-2.84139e-24
-2.6624e-24
-2.54593e-24
-2.49639e-24
-2.51763e-24
-2.60908e-24
-1.62584e-24
-1.87395e-24
-2.20767e-24
-2.62481e-24
-3.12689e-24
-3.71148e-24
-3.22839e-24
-2.83125e-24
-2.5262e-24
-2.31581e-24
-2.20309e-24
-2.19151e-24
-2.28499e-24
-2.48777e-24
-2.80424e-24
-3.23877e-24
-3.79543e-24
-4.47771e-24
-5.28823e-24
-6.22847e-24
-7.29061e-24
-6.16979e-24
-5.16683e-24
-4.28542e-24
-3.52007e-24
-2.86413e-24
-2.31023e-24
-1.85062e-24
-1.47758e-24
-1.18368e-24
-9.60719e-25
-7.98959e-25
-6.3817e-25
-3.87416e-25
-1.93271e-25
-8.93454e-26
-3.78697e-26
-1.46332e-26
-5.19556e-27
-1.851e-27
-8.24798e-28
-7.31985e-28
-6.0817e-28
-4.66823e-28
-2.91828e-28
-1.80531e-28
-1.00729e-28
-3.27203e-29
-5.08003e-30
-8.65271e-31
-4.7311e-31
-4.61656e-31
-4.59668e-31
-4.63089e-31
-5.8191e-31
)
;
    }
    outlet
    {
        type            cyclic;
        value           nonuniform List<scalar> 
120
(
-6.32522e-28
-1.89951e-27
-3.16992e-27
-4.44535e-27
-5.72816e-27
-7.02963e-27
-8.37363e-27
-9.7939e-27
-1.1296e-26
-1.31956e-26
-1.53423e-26
-1.64056e-26
-1.67361e-26
-4.23585e-25
-3.70307e-25
-3.22528e-25
-3.21997e-25
-3.49484e-25
-3.86699e-25
-4.20277e-25
-4.40688e-25
-4.44341e-25
-4.36954e-25
-4.19725e-25
1.93867e-25
8.22724e-25
1.47429e-24
1.86431e-24
2.28415e-24
2.73588e-24
2.64414e-24
2.0109e-24
1.41547e-24
8.60781e-25
3.47347e-25
-1.22793e-25
2.81948e-26
7.98047e-25
1.03422e-24
1.88173e-24
1.61582e-24
1.959e-24
1.76196e-24
1.59699e-24
1.46616e-24
1.93944e-24
1.28715e-24
6.55306e-25
-5.25537e-25
-5.2868e-25
-5.04341e-25
-4.56147e-25
-3.82941e-25
-2.82645e-25
-1.50358e-25
5.9349e-25
1.3773e-24
2.20378e-24
3.07409e-24
2.84139e-24
2.6624e-24
2.54593e-24
2.49639e-24
2.51763e-24
2.60908e-24
1.62584e-24
1.87395e-24
2.20767e-24
2.62481e-24
3.12689e-24
3.71148e-24
3.22839e-24
2.83125e-24
2.5262e-24
2.31581e-24
2.20309e-24
2.19151e-24
2.28499e-24
2.48777e-24
2.80424e-24
3.23877e-24
3.79543e-24
4.47771e-24
5.28823e-24
6.22847e-24
7.29061e-24
6.16979e-24
5.16683e-24
4.28542e-24
3.52007e-24
2.86413e-24
2.31023e-24
1.85062e-24
1.47758e-24
1.18368e-24
9.60719e-25
7.98959e-25
6.3817e-25
3.87416e-25
1.93271e-25
8.93454e-26
3.78697e-26
1.46332e-26
5.19556e-27
1.851e-27
8.24798e-28
7.31985e-28
6.0817e-28
4.66823e-28
2.91828e-28
1.80531e-28
1.00729e-28
3.27203e-29
5.08003e-30
8.65271e-31
4.7311e-31
4.61656e-31
4.59668e-31
4.63089e-31
5.8191e-31
)
;
    }
    top
    {
        type            fixedValue;
        value           uniform 0;
    }
    bottom
    {
        type            fixedValue;
        value           uniform 0;
    }
    frontAndBackPlanes
    {
        type            empty;
        value           nonuniform List<scalar> 0();
    }
}


// ************************************************************************* //
