/*--------------------------------*- C++ -*----------------------------------*\
| =========                 |                                                 |
| \\      /  F ield         | OpenFOAM: The Open Source CFD Toolbox           |
|  \\    /   O peration     | Version:  2206                                  |
|   \\  /    A nd           | Website:  www.openfoam.com                      |
|    \\/     M anipulation  |                                                 |
\*---------------------------------------------------------------------------*/
FoamFile
{
    version     2.0;
    format      ascii;
    arch        "LSB;label=32;scalar=64";
    class       volVectorField;
    location    "180";
    object      U.a;
}
// * * * * * * * * * * * * * * * * * * * * * * * * * * * * * * * * * * * * * //

dimensions      [0 1 -1 0 0 0 0];

internalField   nonuniform List<vector> 
120
(
(-2.10841e-21 5.48011e-09 0)
(-6.33171e-21 -2.69908e-08 0)
(-1.05664e-20 -5.39493e-08 0)
(-1.48178e-20 -7.26982e-08 0)
(-1.90939e-20 -1.06807e-07 0)
(-2.34321e-20 -1.34263e-07 0)
(-2.79121e-20 -1.79678e-07 0)
(-3.26463e-20 -2.32306e-07 0)
(-3.76533e-20 -3.01389e-07 0)
(-4.39852e-20 -3.97361e-07 0)
(-5.11409e-20 -5.0153e-07 0)
(-5.46853e-20 -5.21506e-07 0)
(-5.5787e-20 -5.07476e-07 0)
(-1.41195e-18 -2.34782e-05 0)
(-1.23436e-18 -3.29918e-06 0)
(-1.07509e-18 -4.91816e-06 0)
(-1.07332e-18 -6.03688e-06 0)
(-1.16495e-18 -6.32675e-06 0)
(-1.289e-18 -6.40936e-06 0)
(-1.40092e-18 -6.4397e-06 0)
(-1.46896e-18 -6.44996e-06 0)
(-1.48114e-18 -6.4528e-06 0)
(-1.45651e-18 -6.45345e-06 0)
(-1.39908e-18 -6.45359e-06 0)
(6.46224e-19 -6.45363e-06 0)
(2.74241e-18 -6.45364e-06 0)
(4.91429e-18 -6.45364e-06 0)
(6.21435e-18 -6.45364e-06 0)
(7.61383e-18 -6.45364e-06 0)
(9.11959e-18 -6.45364e-06 0)
(8.81379e-18 -6.45364e-06 0)
(6.703e-18 -6.45364e-06 0)
(4.71824e-18 -6.45364e-06 0)
(2.86927e-18 -6.45364e-06 0)
(1.15782e-18 -6.45364e-06 0)
(-4.0931e-19 -6.45364e-06 0)
(9.39827e-20 -6.45364e-06 0)
(2.66016e-18 -6.45364e-06 0)
(3.4474e-18 -6.45364e-06 0)
(6.27244e-18 -6.45364e-06 0)
(5.38608e-18 -6.45364e-06 0)
(6.53e-18 -6.45364e-06 0)
(5.87321e-18 -6.45364e-06 0)
(5.3233e-18 -6.45364e-06 0)
(4.88721e-18 -6.45364e-06 0)
(6.46481e-18 -6.45364e-06 0)
(4.29049e-18 -6.45364e-06 0)
(2.18435e-18 -6.45364e-06 0)
(-1.75179e-18 -6.45364e-06 0)
(-1.76227e-18 -6.45364e-06 0)
(-1.68114e-18 -6.45364e-06 0)
(-1.52049e-18 -6.45364e-06 0)
(-1.27647e-18 -6.45364e-06 0)
(-9.42149e-19 -6.45364e-06 0)
(-5.01193e-19 -6.45364e-06 0)
(1.9783e-18 -6.45364e-06 0)
(4.59099e-18 -6.45364e-06 0)
(7.34594e-18 -6.45364e-06 0)
(1.0247e-17 -6.45364e-06 0)
(9.47131e-18 -6.45364e-06 0)
(8.87465e-18 -6.45364e-06 0)
(8.48645e-18 -6.45364e-06 0)
(8.3213e-18 -6.45364e-06 0)
(8.39208e-18 -6.45364e-06 0)
(8.69693e-18 -6.45364e-06 0)
(5.41946e-18 -6.45364e-06 0)
(6.24651e-18 -6.45364e-06 0)
(7.3589e-18 -6.45364e-06 0)
(8.74936e-18 -6.45364e-06 0)
(1.0423e-17 -6.45364e-06 0)
(1.23716e-17 -6.45364e-06 0)
(1.07613e-17 -6.45364e-06 0)
(9.43751e-18 -6.45364e-06 0)
(8.42067e-18 -6.45364e-06 0)
(7.71937e-18 -6.45364e-06 0)
(7.34363e-18 -6.45364e-06 0)
(7.30505e-18 -6.45364e-06 0)
(7.61665e-18 -6.45364e-06 0)
(8.29255e-18 -6.45364e-06 0)
(9.34745e-18 -6.45364e-06 0)
(1.07959e-17 -6.45364e-06 0)
(1.26514e-17 -6.45364e-06 0)
(1.49257e-17 -6.45364e-06 0)
(1.76274e-17 -6.45364e-06 0)
(2.07616e-17 -6.45364e-06 0)
(2.4302e-17 -6.45364e-06 0)
(2.0566e-17 -6.45364e-06 0)
(1.72228e-17 -6.45364e-06 0)
(1.42847e-17 -6.45364e-06 0)
(1.17336e-17 -6.45364e-06 0)
(9.54709e-18 -6.45364e-06 0)
(7.70075e-18 -6.45364e-06 0)
(6.16875e-18 -6.45364e-06 0)
(4.92528e-18 -6.45364e-06 0)
(3.94561e-18 -6.45363e-06 0)
(3.2024e-18 -6.45365e-06 0)
(2.6632e-18 -6.45374e-06 0)
(2.12723e-18 -6.45391e-06 0)
(1.29139e-18 -6.44954e-06 0)
(6.44237e-19 -6.4216e-06 0)
(2.97818e-19 -6.55125e-06 0)
(1.26232e-19 -7.15772e-06 0)
(4.87772e-20 -4.91685e-06 0)
(1.73185e-20 8.77096e-06 0)
(6.17001e-21 -2.85097e-05 0)
(2.74933e-21 -0.000334481 0)
(2.43995e-21 -0.000179659 0)
(2.02723e-21 -0.000359863 0)
(1.55608e-21 -0.000262681 0)
(9.72759e-22 -0.00020084 0)
(6.01771e-22 -0.000216345 0)
(3.35764e-22 -0.000223219 0)
(1.09068e-22 -0.000227022 0)
(1.69334e-23 -0.000228563 0)
(2.88424e-24 -0.0002288 0)
(1.57703e-24 -0.000228822 0)
(1.53885e-24 -0.000228822 0)
(1.53223e-24 -0.000228822 0)
(1.54363e-24 -0.000228804 0)
(1.9397e-24 -0.000227142 0)
)
;

boundaryField
{
    inlet
    {
        type            cyclic;
    }
    outlet
    {
        type            cyclic;
    }
    top
    {
        type            fixedValue;
        value           uniform (0 0 0);
    }
    bottom
    {
        type            fixedValue;
        value           uniform (0 0 0);
    }
    frontAndBackPlanes
    {
        type            empty;
    }
}


// ************************************************************************* //
