/*--------------------------------*- C++ -*----------------------------------*\
| =========                 |                                                 |
| \\      /  F ield         | OpenFOAM: The Open Source CFD Toolbox           |
|  \\    /   O peration     | Version:  2206                                  |
|   \\  /    A nd           | Website:  www.openfoam.com                      |
|    \\/     M anipulation  |                                                 |
\*---------------------------------------------------------------------------*/
FoamFile
{
    version     2.0;
    format      ascii;
    arch        "LSB;label=32;scalar=64";
    class       volVectorField;
    location    "180";
    object      U.b;
}
// * * * * * * * * * * * * * * * * * * * * * * * * * * * * * * * * * * * * * //

dimensions      [0 1 -1 0 0 0 0];

internalField   nonuniform List<vector> 
120
(
(-2.1084e-21 2.79538e-08 0)
(-6.33128e-21 4.53393e-08 0)
(-1.04755e-20 7.25228e-08 0)
(-1.48174e-20 1.14179e-07 0)
(-1.90938e-20 1.48956e-07 0)
(-2.34291e-20 2.03351e-07 0)
(-2.7283e-20 2.60382e-07 0)
(-3.26484e-20 3.40236e-07 0)
(-3.8724e-20 4.42402e-07 0)
(-4.39982e-20 5.64664e-07 0)
(-5.11426e-20 6.51996e-07 0)
(-5.64411e-20 6.786e-07 0)
(-6.40841e-20 3.45416e-06 0)
(-1.41189e-18 -1.28421e-05 0)
(-1.23436e-18 8.38616e-06 0)
(-1.0751e-18 7.52241e-06 0)
(-1.07332e-18 6.71361e-06 0)
(-1.16493e-18 6.52816e-06 0)
(-1.28894e-18 6.48063e-06 0)
(-1.4008e-18 6.46214e-06 0)
(-1.46882e-18 6.4557e-06 0)
(-1.48121e-18 6.454e-06 0)
(-1.45711e-18 6.45369e-06 0)
(-1.45427e-18 6.45364e-06 0)
(6.45512e-19 6.45364e-06 0)
(2.74261e-18 6.45364e-06 0)
(4.94196e-18 6.45364e-06 0)
(6.21458e-18 6.45364e-06 0)
(7.61429e-18 6.45364e-06 0)
(9.17539e-18 6.45365e-06 0)
(8.86959e-18 6.45364e-06 0)
(6.70345e-18 6.45364e-06 0)
(4.71824e-18 6.45364e-06 0)
(2.86926e-18 6.45364e-06 0)
(1.15735e-18 6.45364e-06 0)
(-4.65111e-19 6.45364e-06 0)
(3.86358e-20 6.45364e-06 0)
(2.7146e-18 6.45364e-06 0)
(3.3934e-18 6.45364e-06 0)
(6.38223e-18 6.45364e-06 0)
(5.33208e-18 6.45364e-06 0)
(6.5849e-18 6.45364e-06 0)
(5.87365e-18 6.45364e-06 0)
(5.32286e-18 6.45364e-06 0)
(4.83276e-18 6.45365e-06 0)
(6.57506e-18 6.45364e-06 0)
(4.29184e-18 6.45364e-06 0)
(2.2388e-18 6.45364e-06 0)
(-1.86204e-18 6.45364e-06 0)
(-1.76317e-18 6.45364e-06 0)
(-1.68115e-18 6.45364e-06 0)
(-1.52049e-18 6.45364e-06 0)
(-1.27648e-18 6.45364e-06 0)
(-9.42604e-19 6.45364e-06 0)
(-5.56546e-19 6.45364e-06 0)
(1.97784e-18 6.45364e-06 0)
(4.59098e-18 6.45364e-06 0)
(7.34684e-18 6.45364e-06 0)
(1.03576e-17 6.45364e-06 0)
(9.4722e-18 6.45364e-06 0)
(8.87466e-18 6.45364e-06 0)
(8.48644e-18 6.45364e-06 0)
(8.3213e-18 6.45364e-06 0)
(8.39297e-18 6.45364e-06 0)
(8.80672e-18 6.45364e-06 0)
(5.30966e-18 6.45364e-06 0)
(6.2456e-18 6.45365e-06 0)
(7.35889e-18 6.45365e-06 0)
(8.74935e-18 6.45364e-06 0)
(1.04239e-17 6.45364e-06 0)
(1.24823e-17 6.45364e-06 0)
(1.07622e-17 6.45364e-06 0)
(9.43751e-18 6.45364e-06 0)
(8.42066e-18 6.45364e-06 0)
(7.71936e-18 6.45364e-06 0)
(7.34362e-18 6.45364e-06 0)
(7.30504e-18 6.45364e-06 0)
(7.61664e-18 6.45364e-06 0)
(8.29254e-18 6.45364e-06 0)
(9.34744e-18 6.45364e-06 0)
(1.07959e-17 6.45364e-06 0)
(1.26514e-17 6.45364e-06 0)
(1.49257e-17 6.45364e-06 0)
(1.76274e-17 6.45364e-06 0)
(2.07633e-17 6.45364e-06 0)
(2.45234e-17 6.45364e-06 0)
(2.05678e-17 6.45364e-06 0)
(1.72228e-17 6.45364e-06 0)
(1.42847e-17 6.45364e-06 0)
(1.17335e-17 6.45364e-06 0)
(9.54708e-18 6.45364e-06 0)
(7.70074e-18 6.45364e-06 0)
(6.16874e-18 6.45364e-06 0)
(4.92527e-18 6.45365e-06 0)
(3.94556e-18 6.45365e-06 0)
(3.20221e-18 6.45364e-06 0)
(2.66103e-18 6.45354e-06 0)
(2.12033e-18 6.45336e-06 0)
(1.28822e-18 6.45765e-06 0)
(6.43904e-19 6.48619e-06 0)
(2.97763e-19 6.35798e-06 0)
(1.26232e-19 5.7481e-06 0)
(4.87782e-20 7.94698e-06 0)
(1.73193e-20 2.14918e-05 0)
(6.17032e-21 -1.46374e-05 0)
(2.74958e-21 -0.000301324 0)
(2.44129e-21 3.11962e-05 0)
(1.95271e-21 4.14256e-05 0)
(1.5612e-21 1.83298e-06 0)
(1.24789e-21 -2.72524e-06 0)
(9.96637e-22 -5.02362e-07 0)
(7.94396e-22 1.38943e-07 0)
(6.30718e-22 5.59018e-08 0)
(4.97227e-22 -3.07681e-09 0)
(3.87196e-22 -4.62166e-09 0)
(2.95185e-22 -3.72797e-10 0)
(2.16742e-22 2.96603e-10 0)
(1.48156e-22 6.20075e-11 0)
(8.62499e-23 -1.74534e-11 0)
(2.82086e-23 -1.21564e-11 0)
)
;

boundaryField
{
    inlet
    {
        type            cyclic;
    }
    outlet
    {
        type            cyclic;
    }
    top
    {
        type            fixedValue;
        value           uniform (0 0 0);
    }
    bottom
    {
        type            fixedValue;
        value           uniform (0 0 0);
    }
    frontAndBackPlanes
    {
        type            empty;
    }
}


// ************************************************************************* //
