/*--------------------------------*- C++ -*----------------------------------*\
| =========                 |                                                 |
| \\      /  F ield         | OpenFOAM: The Open Source CFD Toolbox           |
|  \\    /   O peration     | Version:  2206                                  |
|   \\  /    A nd           | Website:  www.openfoam.com                      |
|    \\/     M anipulation  |                                                 |
\*---------------------------------------------------------------------------*/
FoamFile
{
    version     2.0;
    format      ascii;
    arch        "LSB;label=32;scalar=64";
    class       volScalarField;
    location    "1.4";
    object      alpha.a_0;
}
// * * * * * * * * * * * * * * * * * * * * * * * * * * * * * * * * * * * * * //

dimensions      [0 0 0 0 0 0 0];

internalField   nonuniform List<scalar> 
13078
(
0.467787
0.5678772
0.5812653
0.5812263
0.5806173
0.5798821
0.5790233
0.570572
0.5815267
0.5819116
0.581311
0.5806507
0.5799047
0.579044
0.5828608
0.5826442
0.5820297
0.5813844
0.5806991
0.5799377
0.5790711
0.5833636
0.5827145
0.5820871
0.5814431
0.5807439
0.5799718
0.5791001
0.5833744
0.582738
0.5821211
0.5814732
0.5807796
0.5800035
0.5791285
0.5833478
0.5827375
0.5821353
0.5814913
0.5807963
0.5800299
0.5791552
0.5833231
0.5827296
0.5821412
0.5815032
0.5808075
0.5800405
0.5791782
0.5833059
0.5827207
0.5821434
0.5815092
0.5808138
0.5800477
0.579186
0.5832939
0.582713
0.5821411
0.5815105
0.5808171
0.5800524
0.5791914
0.5832854
0.582707
0.5821384
0.5815105
0.5808188
0.5800555
0.5791955
0.5832793
0.5827023
0.582136
0.5815099
0.5808198
0.5800577
0.5791988
0.5832746
0.582699
0.5821339
0.5815092
0.5808203
0.5800595
0.5792015
0.5832709
0.5826962
0.5821323
0.5815087
0.5808207
0.5800609
0.5792039
0.583268
0.5826941
0.582131
0.5815084
0.5808214
0.5800623
0.5792063
0.5832656
0.5826925
0.5821303
0.581512
0.5808274
0.5800643
0.5792086
0.5832636
0.5826912
0.5821299
0.5815167
0.580832
0.5800662
0.579211
0.5832618
0.58269
0.5821294
0.5815173
0.5808332
0.5800679
0.5792136
0.5832601
0.582689
0.5821291
0.5815178
0.5808345
0.5800697
0.5792163
0.5832585
0.5826882
0.582129
0.5815184
0.580836
0.5800721
0.579219
0.5832569
0.5826874
0.582129
0.5815197
0.5808432
0.5800827
0.5792229
0.5832553
0.5826867
0.5821291
0.5815211
0.5808518
0.5800911
0.5792269
0.5832535
0.5826859
0.5821291
0.581522
0.5808545
0.5800944
0.5792305
0.5832517
0.5826851
0.5821293
0.5815232
0.5808568
0.5800982
0.5792354
0.5832496
0.5826842
0.5821294
0.5815245
0.5808601
0.58011
0.5792522
0.5832472
0.5826831
0.5821293
0.5815259
0.5808635
0.5801237
0.5792656
0.5832445
0.5826817
0.5821293
0.5815273
0.5808664
0.5801295
0.5792725
0.5832412
0.58268
0.582129
0.5815287
0.5808696
0.5801347
0.57928
0.5832373
0.5826779
0.5821285
0.58153
0.580873
0.5801409
0.5792992
0.5832328
0.5826752
0.5821275
0.5815311
0.5808765
0.5801475
0.5793209
0.5832288
0.5826734
0.5821265
0.581532
0.5808797
0.5801532
0.5793314
0.5832236
0.5826704
0.5821245
0.5815324
0.5808828
0.5801591
0.5793415
0.583216
0.5826678
0.5821263
0.581533
0.5808854
0.5801648
0.5793515
0.5832067
0.5826644
0.5821296
0.5815399
0.5808885
0.5801701
0.5793598
0.5831956
0.5826579
0.5821308
0.5815422
0.5808907
0.5801749
0.5793677
0.5831831
0.5826498
0.5821277
0.5815483
0.5809027
0.5801808
0.5793748
0.5831693
0.5826412
0.5821237
0.5815554
0.58092
0.5802006
0.5793833
0.5831548
0.582633
0.58212
0.5815578
0.5809353
0.5802118
0.5793905
0.5831413
0.5826266
0.5821186
0.5815599
0.5809426
0.5802351
0.5794179
0.5831301
0.5826239
0.5821212
0.5815674
0.5809566
0.5802697
0.5794452
0.5831253
0.5826311
0.5821361
0.5815968
0.5810042
0.5803368
0.5795189
0.58313
0.5826615
0.582197
0.5816844
0.5811255
0.580455
0.579569
0.5831586
0.5827393
0.5823428
0.5818941
0.5813167
0.5805153
0.5794879
0.5832358
0.582911
0.5825968
0.5821417
0.5814184
0.5804497
0.5791812
0.5833976
0.5831681
0.5828516
0.5822387
0.5813639
0.5802247
0.5788444
0.583652
0.5834251
0.5829409
0.5822014
0.5812206
0.5799753
0.5791023
0.5839493
0.5835429
0.5829111
0.5821343
0.5811115
0.5803057
0.5800448
0.5842167
0.5835165
0.5828673
0.5820763
0.5813754
0.581177
0.5811827
0.5843814
0.5834826
0.5829019
0.5822379
0.58204
0.5821975
0.5821479
0.5844364
0.583487
0.5830058
0.5826523
0.5828546
0.5830511
0.5828509
0.5844382
0.5835235
0.5831879
0.5831782
0.583608
0.5837352
0.5833392
0.5844496
0.5836395
0.5834124
0.5836759
0.5841708
0.5841748
0.5838254
0.5844877
0.5837912
0.5837514
0.5841743
0.5846223
0.5845062
0.5841998
0.5845102
0.5839216
0.5840356
0.5844601
0.5848426
0.5846361
0.5842916
0.5845031
0.5840092
0.5842276
0.5846702
0.5849737
0.584673
0.5841789
0.5844977
0.5840697
0.5843597
0.584815
0.5850536
0.5847097
0.5841288
0.5845228
0.5841187
0.5844486
0.5849096
0.5851149
0.5847515
0.5841342
0.5845434
0.5841338
0.5844593
0.5849206
0.5851312
0.5847769
0.5841679
0.5845598
0.5841164
0.5843948
0.5848532
0.5851093
0.5847898
0.5842366
0.5846042
0.5840759
0.5842685
0.5847113
0.5850328
0.5847611
0.5843087
0.5846449
0.583992
0.5840534
0.5844628
0.5848537
0.5846633
0.5843469
0.5846505
0.5838685
0.5837457
0.5841221
0.5845643
0.584454
0.584138
0.5846313
0.5837352
0.5834227
0.5836148
0.5840886
0.5840994
0.5837369
0.5846274
0.5836475
0.5832346
0.5831086
0.583467
0.583601
0.583209
0.5846168
0.5836345
0.5831044
0.5826243
0.5826798
0.5828567
0.5826816
0.5845357
0.5836424
0.5830499
0.5823064
0.58191
0.5819575
0.5819386
0.5843363
0.5836649
0.5830419
0.5822436
0.581407
0.5809676
0.580922
0.5840355
0.5836673
0.5830798
0.5823422
0.5812968
0.5802887
0.5798532
0.5837131
0.5835118
0.5830778
0.5823883
0.5814642
0.5802195
0.5791092
0.5834406
0.5832278
0.5829414
0.5823857
0.5815839
0.5805406
0.5790749
0.5832649
0.5829526
0.5826542
0.5822343
0.5815793
0.5806814
0.5794909
0.5831775
0.5827664
0.5823817
0.5819511
0.5814089
0.5806598
0.5796925
0.5831422
0.5826802
0.5822247
0.5817235
0.5811749
0.5805222
0.579675
0.5831339
0.5826461
0.5821583
0.5816232
0.5810334
0.5803688
0.5795623
0.5831368
0.5826366
0.5821388
0.5815858
0.5809752
0.580292
0.5794703
0.5831464
0.5826368
0.5821323
0.5815755
0.5809576
0.580252
0.5794373
0.5831589
0.5826407
0.5821303
0.5815687
0.5809423
0.5802236
0.5794059
0.5831723
0.5826469
0.5821309
0.5815646
0.5809258
0.5802053
0.5793958
0.5831853
0.5826544
0.5821338
0.5815561
0.580912
0.580191
0.5793863
0.5831973
0.5826613
0.5821358
0.5815487
0.5808983
0.5801837
0.5793772
0.5832079
0.5826674
0.582134
0.5815453
0.5808949
0.5801773
0.5793675
0.5832173
0.5826703
0.5821298
0.5815373
0.5808906
0.5801707
0.5793575
0.5832249
0.5826726
0.5821273
0.5815361
0.5808871
0.5801638
0.5793463
0.5832298
0.5826753
0.5821289
0.581535
0.5808833
0.580157
0.5793353
0.5832338
0.5826768
0.5821295
0.5815336
0.5808793
0.5801505
0.579324
0.5832382
0.5826793
0.5821301
0.5815321
0.5808753
0.5801433
0.5793018
0.583242
0.5826812
0.5821305
0.5815304
0.5808715
0.5801367
0.579282
0.5832453
0.5826828
0.5821306
0.5815286
0.580868
0.5801312
0.5792741
0.5832479
0.5826839
0.5821303
0.5815269
0.5808647
0.5801249
0.5792669
0.5832502
0.5826848
0.5821301
0.5815255
0.5808611
0.580111
0.5792531
0.5832522
0.5826857
0.5821299
0.581524
0.5808577
0.5800991
0.5792361
0.583254
0.5826864
0.5821297
0.5815226
0.5808553
0.5800951
0.5792313
0.5832556
0.582687
0.5821296
0.5815215
0.5808522
0.5800916
0.5792275
0.583257
0.5826877
0.5821293
0.5815199
0.5808435
0.580083
0.5792232
0.5832585
0.5826883
0.5821291
0.5815185
0.5808361
0.5800722
0.5792192
0.5832599
0.582689
0.582129
0.5815178
0.5808345
0.5800697
0.5792164
0.5832613
0.5826897
0.5821291
0.5815171
0.5808332
0.5800679
0.5792138
0.5832629
0.5826906
0.5821295
0.5815163
0.5808319
0.5800662
0.5792112
0.5832646
0.5826915
0.5821296
0.5815115
0.5808271
0.5800643
0.5792087
0.5832664
0.5826928
0.58213
0.5815078
0.5808211
0.5800623
0.5792064
0.5832688
0.5826944
0.5821309
0.5815079
0.5808204
0.5800609
0.5792042
0.5832715
0.5826966
0.5821322
0.5815083
0.58082
0.5800597
0.5792021
0.5832752
0.5826993
0.5821339
0.5815089
0.5808197
0.5800583
0.5791998
0.5832799
0.5827028
0.5821359
0.5815095
0.5808191
0.5800567
0.5791972
0.583286
0.5827073
0.5821384
0.5815101
0.5808183
0.5800546
0.5791941
0.5832943
0.5827133
0.5821409
0.5815101
0.5808167
0.5800515
0.57919
0.5833062
0.5827209
0.5821405
0.5815069
0.5808132
0.5800467
0.579184
0.5833234
0.5827299
0.5821392
0.5815002
0.5808066
0.5800394
0.5791633
0.5833479
0.5827381
0.5821357
0.5814914
0.5807963
0.5800172
0.579139
0.5833742
0.5827386
0.5821218
0.5814748
0.580769
0.57999
0.5791126
0.5833624
0.5827152
0.5820918
0.5814346
0.5807328
0.5799589
0.5790842
0.5828627
0.5826556
0.5820231
0.5813763
0.580689
0.5799248
0.5790549
0.5708175
0.5816498
0.5819508
0.5813029
0.5806368
0.5798889
0.579026
0.5780096
0.576739
0.5750465
0.5734393
0.5705866
0.5661217
0.5560363
0.5780322
0.5767677
0.5750829
0.5734817
0.5706386
0.5661941
0.5564406
0.5780584
0.5767976
0.5751216
0.5729244
0.5706885
0.5662642
0.5566722
0.578086
0.5768281
0.575157
0.5735732
0.5707408
0.5663343
0.5568847
0.5781133
0.576859
0.5751947
0.5736184
0.5707928
0.5664042
0.5570399
0.5781398
0.5768898
0.5752326
0.5736635
0.570844
0.5664735
0.5571895
0.5781653
0.5769201
0.57527
0.5737067
0.5708583
0.5665424
0.5573342
0.578188
0.5769497
0.5753068
0.5737489
0.5708717
0.5666105
0.5574752
0.5781946
0.5769767
0.5753416
0.5737916
0.5709126
0.5666716
0.5576133
0.5781996
0.576984
0.5753739
0.5738339
0.5709529
0.5667326
0.5577486
0.5782037
0.5769894
0.5753825
0.5738749
0.5709931
0.5667934
0.5578814
0.5782075
0.5769946
0.5753891
0.5738835
0.5710335
0.5668543
0.5580114
0.578211
0.5769996
0.5753958
0.5738912
0.5710401
0.5669165
0.5581384
0.5782144
0.5770046
0.5754026
0.5738994
0.5710476
0.5669279
0.5582596
0.5782178
0.5770098
0.5754096
0.5739077
0.5710556
0.5669415
0.5582238
0.5782214
0.5770152
0.5754169
0.5739165
0.5710642
0.566956
0.5582054
0.5782251
0.5770208
0.5754243
0.573926
0.5710773
0.5669711
0.5581987
0.5782289
0.5770264
0.5754324
0.5739402
0.5711971
0.5669874
0.5581747
0.5782329
0.5770321
0.5754407
0.5739505
0.5712145
0.5670041
0.5581553
0.5782373
0.5770382
0.5754494
0.5739613
0.5712278
0.5670217
0.5581286
0.5782419
0.5770446
0.5754584
0.5739728
0.5712419
0.56704
0.5580808
0.578247
0.5770515
0.5754678
0.5739852
0.5712566
0.5670594
0.5580467
0.5782524
0.5770589
0.5754783
0.5739964
0.5712756
0.5670797
0.5580089
0.5782596
0.5770671
0.5754903
0.5734481
0.5713926
0.5671122
0.5579696
0.5782671
0.5770757
0.5755019
0.5740209
0.5714523
0.5671386
0.557927
0.5782743
0.577085
0.5755145
0.5740425
0.5714755
0.5671633
0.5578794
0.5782838
0.5770963
0.5755294
0.5740607
0.5714994
0.5671928
0.5578172
0.5783113
0.5771091
0.5755445
0.5740796
0.5715316
0.5674333
0.5577508
0.5783306
0.5774438
0.5759806
0.574097
0.571562
0.5675256
0.5576945
0.5783437
0.5774581
0.5760018
0.574119
0.5715907
0.5675626
0.5576304
0.5783815
0.5775015
0.5760196
0.5741419
0.5716215
0.5677372
0.5575743
0.5784073
0.577542
0.5760384
0.5741669
0.5716551
0.567935
0.557519
0.5784232
0.5776034
0.5760637
0.5741934
0.5716909
0.5679919
0.5574877
0.578435
0.5776284
0.5761274
0.5742206
0.5717283
0.5680626
0.5583802
0.5784457
0.5776455
0.5761954
0.5742507
0.5717664
0.5681255
0.5585184
0.5784551
0.5776604
0.5762851
0.5742932
0.5717998
0.5681817
0.5621869
0.5784621
0.5776729
0.5763085
0.5743959
0.5718208
0.5682377
0.56016
0.5784696
0.5776805
0.5763242
0.5744691
0.5717925
0.5681809
0.5620616
0.5784744
0.577673
0.5762924
0.5744117
0.5715388
0.5675855
0.5629322
0.5784517
0.5775962
0.5760436
0.5739007
0.5711503
0.5675846
0.5627274
0.5782958
0.5773537
0.5754031
0.5734319
0.5718412
0.5688489
0.5622567
0.5779646
0.576848
0.5751108
0.5742235
0.5726413
0.5697966
0.5628914
0.5775116
0.5765746
0.575936
0.57522
0.5731537
0.5702418
0.5633584
0.5776271
0.5771459
0.5766188
0.5757095
0.5739342
0.5706121
0.564169
0.5785686
0.5779807
0.5773796
0.5761191
0.574275
0.5708543
0.5648059
0.5796286
0.5785953
0.577852
0.5767354
0.5745425
0.5719255
0.5657203
0.5805997
0.5794079
0.5786465
0.5770536
0.5755395
0.5723027
0.5688508
0.5812425
0.5801727
0.5789415
0.5775596
0.5752007
0.5733853
0.5700459
0.5820111
0.5807722
0.5795662
0.5776883
0.5750973
0.5723309
0.5694255
0.5826416
0.5816133
0.5802126
0.578151
0.5754975
0.5723165
0.5699135
0.5831893
0.582437
0.5813097
0.5791205
0.576143
0.5730078
0.5704343
0.5835993
0.5830639
0.5817345
0.5797172
0.5770126
0.5741484
0.5713021
0.5836612
0.5833699
0.5817
0.5797453
0.5775007
0.5748987
0.5722961
0.5835835
0.5830893
0.5817422
0.5803237
0.5780362
0.5757725
0.5722076
0.5836137
0.5830119
0.5819691
0.5804766
0.578683
0.5787426
0.5788742
0.5836831
0.5830415
0.5821107
0.5808333
0.5795797
0.5785296
0.583706
0.583062
0.5821231
0.5809209
0.5796549
0.5787738
0.5837219
0.5831048
0.5820379
0.5805804
0.5792528
0.5778167
0.5837774
0.5831547
0.5817766
0.5804161
0.5780905
0.5767847
0.5749904
0.5837589
0.5833153
0.5816448
0.5795417
0.5773316
0.5748719
0.5720988
0.5835168
0.5832276
0.5814717
0.5792636
0.5764735
0.5738452
0.5709751
0.5830859
0.5828068
0.5811918
0.5793713
0.5767928
0.5740769
0.5712099
0.5825777
0.5822925
0.5806762
0.5789728
0.5767638
0.5734624
0.5708778
0.5819185
0.581616
0.5802025
0.5787902
0.5761095
0.5734097
0.5714223
0.5810965
0.5808921
0.5795437
0.5777982
0.576159
0.5731394
0.5683332
0.5804033
0.5800463
0.5786235
0.5775948
0.5753206
0.5727992
0.5675243
0.579519
0.5792487
0.5780874
0.5767537
0.5750898
0.5709759
0.565397
0.5784165
0.5783776
0.5772828
0.5762612
0.5740569
0.5704099
0.5634127
0.5776614
0.577176
0.5766053
0.57517
0.5732753
0.5698626
0.5639473
0.5777398
0.5763422
0.575843
0.5745892
0.5723931
0.5689874
0.5620419
0.5782544
0.5766087
0.5750345
0.5739072
0.5719653
0.5691897
0.5632729
0.5784674
0.5772351
0.5752208
0.5731481
0.5714342
0.5689937
0.5625769
0.578519
0.5775411
0.5758866
0.5735363
0.5709858
0.5678661
0.5617805
0.5785053
0.577654
0.576235
0.574219
0.571208
0.5671763
0.562802
0.5784904
0.577674
0.5763341
0.5744859
0.5716323
0.5678788
0.563327
0.5784789
0.577667
0.5763314
0.5744289
0.5718207
0.5683037
0.5616222
0.5784694
0.5776559
0.5763116
0.5743646
0.5718206
0.5682282
0.560384
0.5784577
0.5776425
0.5762618
0.574279
0.5717942
0.5681668
0.5587865
0.5784448
0.577627
0.5761718
0.5742441
0.5717566
0.5681002
0.5584338
0.5784312
0.5776085
0.5760889
0.5742146
0.571717
0.5680341
0.5581202
0.5784138
0.5775626
0.5760578
0.5741859
0.5716784
0.567968
0.5574897
0.5783867
0.5775183
0.5760339
0.5741586
0.5716421
0.567888
0.5575436
0.5783476
0.5774631
0.5760142
0.5741334
0.5716086
0.5675971
0.5575906
0.5783337
0.577445
0.5759951
0.5741108
0.5715781
0.5675452
0.5576545
0.5783136
0.5771112
0.5755464
0.5740836
0.5715488
0.5675063
0.5577122
0.5782857
0.5770981
0.575531
0.5740652
0.5715151
0.5672864
0.5577732
0.5782758
0.5770865
0.5755161
0.5740477
0.5714876
0.5671765
0.5578373
0.5782683
0.5770768
0.5755029
0.5740316
0.5714638
0.5671504
0.5578875
0.5782605
0.5770678
0.5754905
0.5740164
0.571438
0.5671262
0.5579373
0.5782531
0.5770596
0.5754792
0.5740017
0.5713146
0.5670936
0.5579774
0.5782476
0.5770521
0.5754686
0.5739882
0.5712638
0.5670684
0.5580168
0.5782425
0.5770449
0.5754587
0.5739757
0.5712486
0.5670485
0.5580573
0.5782376
0.5770384
0.5754494
0.5739639
0.571234
0.5670296
0.5580908
0.5782331
0.5770323
0.5754406
0.5739528
0.5712204
0.5670116
0.5581239
0.5782291
0.5770265
0.5754324
0.5739422
0.5712075
0.5669945
0.5581502
0.5782252
0.5770208
0.5754244
0.5739295
0.5711448
0.5669779
0.5581702
0.5782215
0.5770152
0.5754168
0.573918
0.571068
0.5669621
0.5581895
0.578218
0.57701
0.5754097
0.5739088
0.5710593
0.5669472
0.5582069
0.5782147
0.577005
0.5754028
0.5738998
0.571051
0.5669331
0.5582229
0.5782114
0.5770002
0.5753962
0.5738913
0.5710434
0.56692
0.558172
0.5782083
0.5769955
0.5753898
0.5738829
0.571036
0.5668834
0.5580463
0.578205
0.5769906
0.5753835
0.5738747
0.5710129
0.5668226
0.5579175
0.5782014
0.5769857
0.5753752
0.5738498
0.570973
0.5667617
0.5577857
0.5781973
0.576979
0.5753434
0.5738075
0.5709329
0.5667009
0.5576518
0.5781917
0.5769529
0.5753092
0.5737646
0.5708928
0.5666398
0.5575154
0.5781703
0.5769242
0.5752731
0.5737213
0.5708542
0.5665754
0.5573768
0.5781463
0.5768948
0.5752362
0.57368
0.5708683
0.5665069
0.5572355
0.578121
0.5768645
0.5751988
0.5736359
0.5708189
0.5664379
0.5570907
0.5780943
0.5768335
0.575161
0.5735919
0.5707677
0.5663687
0.5569414
0.5780664
0.5768021
0.5751229
0.5735477
0.5707161
0.566299
0.5567669
0.5780384
0.5767711
0.575085
0.5735042
0.5706644
0.566229
0.5565432
0.5780108
0.5767397
0.5750472
0.5734612
0.5706125
0.5661582
0.5562474
0.003619399
2.53147e-10
5.772666e-15
1.43313e-20
1.184276e-26
1.034096e-32
6.247877e-39
2.751431e-45
3.766607e-52
6.239514e-59
1.064657e-65
1.881961e-72
4.437697e-79
1.331566e-85
1.614705e-91
4.215078e-98
2.222831e-104
1.022988e-110
0.008293085
4.431254e-10
1.279177e-15
3.381184e-21
3.417732e-27
3.537491e-33
2.570875e-39
1.415788e-45
2.772752e-52
6.694266e-59
1.590198e-65
3.322646e-72
6.85374e-79
1.287275e-85
9.054085e-92
2.756472e-99
3.340363e-106
5.516096e-113
0.008801674
2.014158e-09
2.658941e-15
3.535191e-21
2.93567e-27
2.676542e-33
1.945063e-39
1.152436e-45
2.651335e-52
7.134587e-59
2.019236e-65
5.570457e-72
1.411322e-78
3.068986e-85
2.282421e-91
7.520489e-99
8.192464e-106
7.905338e-113
0.009430837
2.556913e-09
4.12627e-15
6.415592e-21
5.525975e-27
5.030536e-33
3.601833e-39
2.188922e-45
4.947047e-52
1.472268e-58
4.481724e-65
1.330661e-71
3.670571e-78
9.16035e-85
7.366473e-91
2.86003e-98
3.588589e-105
3.902372e-112
0.01023741
2.842595e-09
5.56696e-15
9.615124e-21
9.557588e-27
9.369269e-33
7.280434e-39
4.624139e-45
1.188265e-51
3.671606e-58
1.275351e-64
4.064858e-71
1.218761e-77
3.449672e-84
0
3.028758e-97
1.75533e-104
2.377087e-111
0.01121106
3.234401e-09
7.099892e-15
1.395034e-20
1.60978e-26
1.726079e-32
1.465854e-38
1.010016e-44
2.844242e-51
1.027032e-57
3.966192e-64
1.494073e-70
4.813641e-77
1.529686e-83
2.207758e-90
1.513517e-96
1.288498e-103
1.883668e-110
0.01233511
3.621738e-09
9.109283e-15
2.022286e-20
2.676093e-26
3.205038e-32
2.978366e-38
2.284703e-44
7.422221e-51
3.068011e-57
1.363844e-63
5.67771e-70
2.157975e-76
7.486183e-83
2.882432e-89
8.660056e-96
9.775619e-103
1.584756e-109
0.01359488
4.123298e-09
1.179404e-14
2.906667e-20
4.438364e-26
5.814546e-32
6.182639e-38
5.282859e-44
1.968296e-50
9.906559e-57
4.949092e-63
2.355373e-69
1.008458e-75
4.094356e-82
1.737631e-88
5.885669e-95
7.464039e-102
1.419885e-108
0.01497836
4.952711e-09
1.551752e-14
4.245448e-20
7.485158e-26
1.090138e-31
1.2893e-37
1.261196e-43
5.55842e-50
3.188551e-56
1.891549e-62
1.029897e-68
5.102979e-75
2.315057e-81
1.104933e-87
4.204232e-94
6.414436e-101
1.409219e-107
0.01647461
5.918997e-09
2.08757e-14
6.309548e-20
1.291505e-25
2.098956e-31
2.800647e-37
3.12164e-43
1.649913e-49
1.095459e-55
7.588673e-62
4.747565e-68
2.783193e-74
1.407459e-80
7.693675e-87
3.336547e-93
5.926718e-100
1.459626e-106
0.01807518
7.046173e-09
2.812452e-14
9.617529e-20
2.29533e-25
4.226103e-31
6.279614e-37
8.098774e-43
5.058051e-49
3.963051e-55
3.172594e-61
2.343582e-67
1.551387e-73
9.125594e-80
5.56639e-86
2.733467e-92
5.3626e-99
1.512415e-105
0.01977504
8.846703e-09
3.941981e-14
1.522285e-19
4.290264e-25
8.828616e-31
1.527425e-36
2.260378e-42
1.64734e-48
1.546995e-54
1.4211e-60
1.202026e-66
9.161132e-73
6.111911e-79
4.236453e-85
2.289538e-91
5.6009e-98
1.7585e-104
0.02156858
1.108185e-08
5.778095e-14
2.581325e-19
8.725851e-25
2.043503e-30
4.079765e-36
6.905948e-42
5.810293e-48
6.361206e-54
6.741998e-60
6.632197e-66
5.737177e-72
4.347401e-78
3.495346e-84
2.056512e-90
5.694096e-97
2.079218e-103
0.02358084
1.65551e-08
1.002657e-13
5.196259e-19
2.289189e-24
6.081439e-30
1.353889e-35
2.587115e-41
2.500881e-47
3.05196e-53
3.772543e-59
4.077127e-65
3.953792e-71
3.422849e-77
3.051504e-83
2.074206e-89
6.598906e-96
2.68231e-102
0.03046435
3.534248e-08
2.74231e-13
1.727025e-18
8.015624e-24
2.52786e-29
6.543761e-35
1.434623e-40
1.67126e-46
2.454567e-52
3.457093e-58
4.446368e-64
5.054858e-70
5.045452e-76
4.992685e-82
3.547406e-88
1.434988e-94
6.611171e-101
0.03072768
0
1.503188e-13
9.646869e-19
4.51208e-24
1.527875e-29
4.7216e-35
1.340223e-40
2.076039e-46
3.948362e-52
6.713699e-58
1.003869e-63
1.326912e-69
1.513466e-75
1.798341e-81
1.451736e-87
6.668379e-94
3.646757e-100
0.03215754
3.577826e-08
0
9.218452e-19
6.314786e-24
2.261683e-29
6.282555e-35
1.691041e-40
2.94574e-46
6.906635e-52
1.561649e-57
3.137821e-63
5.416122e-69
8.022848e-75
1.206651e-80
1.181803e-86
7.32803e-93
5.101866e-99
0.03417627
3.753159e-08
4.385863e-13
0
1.089198e-23
4.884714e-29
1.670292e-34
4.40319e-40
6.698772e-46
1.542729e-51
3.70548e-57
8.111535e-63
1.565022e-68
2.604019e-74
4.460386e-80
5.001737e-86
3.277081e-92
2.552598e-98
0.03638722
4.058502e-08
5.909776e-13
5.549336e-18
0
9.801067e-29
3.884659e-34
1.308782e-39
2.255004e-45
5.346976e-51
1.410364e-56
3.673112e-62
8.379002e-68
1.632015e-73
3.152696e-79
3.779078e-85
2.953714e-91
2.50621e-97
0.03857776
4.841071e-08
8.114414e-13
9.698053e-18
9.791759e-23
0
1.44296e-33
5.233213e-39
1.1516e-44
2.776498e-50
6.307461e-56
1.423817e-61
3.042217e-67
6.016336e-73
2.081415e-78
1.519619e-84
1.387267e-90
1.360364e-96
0.04073994
6.163171e-08
9.56795e-13
1.202991e-17
1.383769e-22
8.950805e-28
0
1.032686e-38
2.728925e-44
1.010052e-49
3.173445e-55
8.30619e-61
1.881356e-66
3.869739e-72
2.752818e-77
2.560543e-84
1.091391e-89
1.479503e-95
0.04296228
8.278485e-08
1.336759e-12
1.722476e-17
2.240107e-22
1.677083e-27
1.074155e-32
0
9.955473e-44
3.43188e-49
1.420014e-54
4.831548e-60
1.341637e-65
3.109885e-71
1.135703e-76
7.75481e-83
9.501476e-89
1.087729e-94
0.0453026
1.06369e-07
2.007672e-12
2.948483e-17
4.295705e-22
3.603626e-27
2.631287e-32
1.674084e-37
0
1.549588e-48
6.960642e-54
2.833103e-59
9.53611e-65
2.670716e-70
1.085953e-75
9.192243e-82
1.259536e-87
1.605181e-93
0.04774959
1.364967e-07
3.010147e-12
5.127467e-17
8.451748e-22
7.845254e-27
6.356288e-32
4.577134e-37
2.214235e-42
0
3.456453e-53
1.644822e-58
6.41037e-64
2.039003e-69
9.712696e-75
1.000987e-80
1.675606e-86
2.485491e-92
0.05037249
1.690156e-07
4.410022e-12
8.668044e-17
1.635943e-21
1.698487e-26
1.539803e-31
1.237546e-36
6.750411e-42
4.604342e-47
0
6.424086e-58
2.847813e-63
1.168055e-68
6.846467e-74
8.453588e-80
1.667002e-85
2.918514e-91
0.05306815
2.073538e-07
6.283427e-12
1.427417e-16
3.118123e-21
3.669229e-26
3.706556e-31
3.355807e-36
2.076178e-41
1.612434e-46
1.146671e-51
0
1.415487e-62
1.472184e-67
0
2.655185e-79
1.080457e-84
2.873964e-90
0.05594318
2.568764e-07
8.973512e-12
2.345298e-16
5.927312e-21
7.856362e-26
8.872896e-31
8.968777e-36
6.208273e-41
5.484724e-46
4.462004e-51
2.825516e-56
0
5.103718e-67
1.731517e-72
4.436624e-78
1.209311e-83
2.932845e-89
0.05899014
3.143867e-07
1.280716e-11
3.896243e-16
1.148523e-20
1.750999e-25
2.26666e-30
2.625803e-35
2.076974e-40
2.105157e-45
1.933389e-50
1.534788e-55
9.5693e-61
0
1.361736e-71
4.191167e-77
1.306639e-82
3.769029e-88
0.06215198
3.892195e-07
1.834146e-11
6.536014e-16
2.236742e-20
3.8603e-25
5.649091e-30
7.407384e-35
6.359672e-40
7.168238e-45
7.359593e-50
6.557308e-55
5.092024e-60
6.151499e-65
3.544072e-71
3.283323e-76
1.250128e-81
3.915081e-87
0.06555787
4.765562e-07
2.604083e-11
1.094098e-15
4.538192e-20
8.649476e-25
1.444615e-29
2.145806e-34
2.164317e-39
2.785604e-44
3.285998e-49
3.377259e-54
3.026348e-59
8.552256e-64
3.532203e-70
0
3.856613e-81
5.830256e-86
0.0691171
5.806044e-07
3.656083e-11
1.833294e-15
9.492999e-20
1.43716e-24
2.846392e-29
4.68022e-34
5.502773e-39
7.735905e-44
1.05636e-48
1.264693e-53
1.304179e-58
1.639656e-63
6.496016e-69
3.880056e-74
2.527529e-79
3.261696e-84
0.07283124
6.832564e-07
4.62699e-11
2.538e-15
9.735003e-20
3.179802e-24
6.594484e-29
1.021762e-33
4.715419e-38
3.076554e-43
4.582982e-48
6.012952e-53
7.646099e-58
9.147411e-63
4.711354e-68
4.044015e-73
3.369475e-78
6.280112e-83
0.07684077
7.785898e-07
5.521909e-11
2.844038e-15
1.396145e-19
6.070528e-24
1.604062e-28
3.363549e-33
7.122456e-38
1.09359e-42
2.013343e-47
3.206174e-52
6.402086e-57
0
2.184291e-67
1.679503e-72
1.755317e-77
0
0.0813959
7.370049e-07
6.204975e-11
3.231209e-15
1.687443e-19
8.303465e-24
2.490912e-28
5.789143e-33
1.414815e-37
2.509802e-42
5.350343e-47
9.776173e-52
1.889921e-56
2.139901e-61
2.687946e-66
3.665082e-71
7.569604e-76
2.75137e-81
0.09526853
1.46502e-06
1.443331e-10
1.305918e-14
0
1.292463e-23
4.895218e-28
1.210705e-32
0
9.798173e-42
1.981846e-46
4.290208e-51
1.589231e-55
1.63402e-60
2.508057e-65
4.085843e-70
9.19595e-75
2.978086e-80
0.1022556
2.077638e-06
2.753951e-10
3.58826e-14
2.230576e-18
9.937257e-23
3.863267e-27
0
4.711597e-36
1.175054e-40
3.000373e-45
6.992284e-50
3.108651e-54
2.12589e-59
4.766525e-64
1.368096e-68
0
9.931947e-79
0.1124738
2.205058e-06
3.594544e-10
5.273674e-14
3.965881e-18
2.451767e-22
1.117937e-26
3.387492e-31
1.374143e-35
4.336228e-40
1.328396e-44
4.647246e-49
1.589242e-53
3.673048e-58
9.554973e-63
3.404821e-67
3.208755e-72
4.46969e-77
0.2089021
3.636951e-06
5.732525e-10
1.284099e-13
1.035175e-17
7.129968e-22
3.407241e-26
1.268141e-30
6.134075e-35
2.331536e-39
9.135511e-44
4.979039e-48
8.461203e-53
3.933753e-57
1.306966e-61
5.344621e-66
4.424338e-71
8.743839e-76
0.3388115
6.375264e-06
9.297144e-10
2.098499e-13
1.911809e-17
1.330592e-21
7.115679e-26
2.538219e-30
1.504856e-34
8.953687e-39
5.061386e-43
3.502372e-47
1.102964e-51
3.83656e-56
1.5426e-60
2.769278e-65
6.43543e-70
1.285254e-74
0.4450234
8.140045e-06
9.746902e-10
4.076076e-13
2.349592e-17
1.13716e-21
5.859341e-26
3.711068e-30
2.532581e-34
1.482353e-38
8.18283e-43
7.05358e-47
2.434973e-52
1.060003e-56
4.907587e-61
1.00153e-65
3.91379e-70
9.179726e-75
0.505448
0.000558693
3.686239e-08
3.992779e-12
2.205199e-16
1.88829e-20
1.294302e-24
8.027468e-29
4.774706e-33
2.45245e-37
1.267295e-41
5.708892e-46
1.891633e-50
8.060287e-55
0
1.124074e-64
1.583929e-69
3.680164e-74
0.5223613
0.000209954
7.815158e-08
1.675795e-11
1.691497e-15
1.602944e-19
1.144575e-23
8.315628e-28
6.940523e-32
5.49302e-36
4.448665e-40
1.934491e-44
8.57977e-49
3.252988e-53
0
3.036264e-64
2.655924e-69
1.085523e-73
0.5320569
0
2.61594e-09
6.768764e-13
1.178435e-16
1.914511e-20
3.765256e-24
7.114911e-28
1.340646e-31
2.024942e-35
2.699685e-39
1.868145e-43
1.306167e-47
5.369442e-52
2.328356e-56
5.845592e-61
0
6.885063e-71
0.5425157
0.0002851593
2.315593e-08
3.809657e-12
1.353862e-15
6.301573e-19
3.340611e-22
1.404025e-25
5.082523e-29
1.380908e-32
2.304947e-36
3.856514e-40
4.52744e-44
2.79078e-48
1.728927e-52
9.727329e-57
0
1.144589e-65
0.5517562
0.001192631
4.594743e-09
5.800515e-12
6.162834e-15
5.697685e-18
5.175442e-21
3.809973e-24
2.57008e-27
9.737539e-31
9.16449e-35
2.614784e-38
3.916506e-42
6.849565e-46
1.158363e-49
0
1.424446e-58
8.539625e-63
0.5567184
0.003191194
1.209173e-07
4.858598e-11
6.929673e-14
1.097797e-16
1.566783e-19
1.71494e-22
1.526781e-25
1.40516e-28
7.022301e-32
3.565395e-35
8.758282e-39
2.067087e-42
3.297579e-46
3.388877e-50
1.730752e-54
7.723164e-61
0.5539986
0.006568496
1.637969e-06
3.536055e-09
7.405854e-12
1.558116e-14
2.247849e-17
2.842698e-20
2.899277e-23
2.617457e-26
1.598955e-29
4.891177e-33
1.704008e-36
4.74384e-40
2.363524e-44
0
1.874162e-53
1.614057e-57
0.5544447
0.04293644
3.973416e-05
6.237198e-08
1.810604e-10
5.582855e-13
1.118105e-15
1.910515e-18
2.618767e-21
2.584151e-24
1.297018e-27
4.097446e-31
1.733737e-34
1.49749e-38
2.331531e-43
7.332887e-47
0
1.120438e-55
0.5576918
0.0991247
0.0004100491
1.745757e-06
9.173254e-09
4.456085e-11
1.073359e-13
2.091294e-16
3.226296e-19
3.098674e-22
2.207662e-25
1.454515e-28
4.034186e-32
2.774555e-36
5.872327e-40
0
4.823766e-49
0
0.5565564
0.1970551
0.00197332
4.018428e-05
0
2.783561e-23
7.917541e-26
6.693822e-29
3.169952e-32
1.625004e-35
8.203463e-40
1.277639e-43
4.412498e-49
5.006355e-53
0.5562967
0.5548575
0
0
6.847647e-33
1.4825e-36
7.177309e-41
1.374629e-44
3.373048e-49
1.165792e-53
0.5639364
0
3.658811e-33
2.295178e-36
0
1.152799e-45
4.853313e-50
3.944953e-54
3.684764e-33
3.059036e-36
5.66506e-42
1.947642e-45
0
3.959874e-55
4.416351e-37
4.208975e-41
1.717026e-45
5.414557e-49
1.57217e-53
1.999578e-40
2.109712e-42
6.241989e-46
1.465927e-50
7.621985e-55
1.043761e-40
2.629942e-44
3.284389e-48
2.925477e-52
1.988874e-56
6.158228e-43
1.751771e-46
1.116346e-50
4.995056e-55
3.354674e-59
3.096884e-45
6.306293e-49
0
1.018265e-57
4.016151e-62
3.730443e-47
3.911755e-51
2.52381e-58
0
5.382713e-65
2.078631e-41
3.056531e-48
3.987948e-53
1.480844e-59
0
1.240766e-67
0.5632476
2.233318e-37
1.374584e-42
4.070777e-53
3.872503e-60
0
1.596975e-70
0.5592659
0.5548183
1.786061e-32
0
1.794501e-45
1.443352e-50
0
0
2.423208e-71
0.5653244
0.2882921
0.003110356
0
0
2.404887e-34
6.666737e-39
0
4.970317e-50
0
7.028245e-62
6.308535e-67
0.5543048
0.1263187
0.0008145497
5.383978e-06
7.02128e-08
1.994168e-10
2.829276e-13
2.465684e-16
8.949736e-20
2.667255e-23
4.821992e-27
1.864314e-31
2.990948e-36
0
5.661003e-50
6.931859e-55
1.063997e-60
0
0.5549757
0.0756006
0.0001551985
3.465618e-07
6.772532e-10
1.570444e-12
2.018238e-15
1.652023e-18
8.392499e-22
2.274561e-25
4.399482e-29
2.049483e-33
9.526658e-39
5.343349e-43
0
3.421086e-55
0
4.726589e-67
0.5505126
0.02125262
1.519029e-05
1.088164e-08
1.378362e-11
1.800362e-14
1.565266e-17
1.047395e-20
4.608655e-24
1.141014e-27
2.210421e-31
2.266097e-35
6.429551e-40
0
2.756715e-50
0
4.605226e-62
0
0.5511379
0.005819352
5.005116e-07
4.072014e-10
4.600216e-13
3.585647e-16
2.21651e-19
1.030254e-22
3.353821e-26
9.943282e-30
1.217025e-33
1.642271e-37
4.925135e-42
1.89222e-46
0
1.945838e-57
2.862027e-63
7.798276e-70
0.5492007
0.003105671
2.00028e-08
2.300162e-12
3.82543e-15
3.03769e-18
1.729652e-21
6.607515e-25
1.758919e-28
4.020085e-32
5.01254e-36
5.418879e-40
0
4.259469e-49
4.982584e-54
1.11445e-59
6.777863e-66
1.406358e-72
0.5502636
0.001432041
6.701389e-08
3.377343e-12
2.852517e-16
3.958576e-20
1.117765e-23
3.125926e-27
7.345668e-31
1.206218e-34
1.109474e-38
1.093992e-42
8.475945e-47
1.257304e-51
6.347163e-57
1.409299e-63
0
3.634984e-76
0.5427021
0.0006085519
0
6.253032e-14
4.965138e-18
4.406584e-22
6.567402e-26
1.066755e-29
1.639452e-33
2.015146e-37
2.746289e-41
1.422317e-45
6.75848e-50
0
1.318582e-60
2.454005e-67
2.908023e-73
1.895635e-79
0.5299262
0.0002297486
5.78626e-10
4.475099e-15
3.406619e-20
1.488387e-24
1.626349e-28
1.782144e-32
2.099121e-36
2.25421e-40
2.497891e-44