/*--------------------------------*- C++ -*----------------------------------*\
| =========                 |                                                 |
| \\      /  F ield         | OpenFOAM: The Open Source CFD Toolbox           |
|  \\    /   O peration     | Version:  2206                                  |
|   \\  /    A nd           | Website:  www.openfoam.com                      |
|    \\/     M anipulation  |                                                 |
\*---------------------------------------------------------------------------*/
FoamFile
{
    version     2.0;
    format      ascii;
    arch        "LSB;label=32;scalar=64";
    class       volScalarField;
    location    "1.4";
    object      alpha.b;
}
// * * * * * * * * * * * * * * * * * * * * * * * * * * * * * * * * * * * * * //

dimensions      [0 0 0 0 0 0 0];

internalField   nonuniform List<scalar> 
13078
(
0.5346661
0.4323189
0.4187427
0.418775
0.4193832
0.4201183
0.4209771
0.4296065
0.4184891
0.41809
0.4186897
0.4193498
0.4200958
0.4209564
0.4171456
0.4173568
0.4179708
0.418616
0.4193013
0.4200627
0.4209293
0.4166361
0.4172855
0.4179131
0.4185571
0.4192564
0.4200285
0.4209001
0.4166249
0.4172618
0.4178789
0.4185269
0.4192206
0.4199967
0.4208718
0.4166516
0.4172622
0.4178647
0.4185087
0.4192038
0.4199703
0.420845
0.4166764
0.4172701
0.4178587
0.4184968
0.4191926
0.4199596
0.420822
0.4166937
0.4172792
0.4178565
0.4184908
0.4191863
0.4199525
0.4208142
0.4167058
0.4172869
0.4178588
0.4184895
0.419183
0.4199478
0.4208087
0.4167143
0.4172929
0.4178615
0.4184895
0.4191812
0.4199446
0.4208047
0.4167204
0.4172976
0.417864
0.4184901
0.4191803
0.4199424
0.4208014
0.4167252
0.417301
0.417866
0.4184908
0.4191798
0.4199407
0.4207987
0.4167288
0.4173037
0.4178677
0.4184914
0.4191794
0.4199392
0.4207963
0.4167318
0.4173058
0.417869
0.4184916
0.4191787
0.4199378
0.4207939
0.4167342
0.4173075
0.4178697
0.418488
0.4191727
0.4199358
0.4207917
0.4167362
0.4173088
0.4178701
0.4184834
0.4191681
0.419934
0.4207892
0.4167381
0.41731
0.4178706
0.4184828
0.4191669
0.4199323
0.4207867
0.4167398
0.417311
0.4178709
0.4184823
0.4191657
0.4199305
0.420784
0.4167414
0.4173119
0.4178711
0.4184817
0.4191642
0.4199281
0.4207813
0.416743
0.4173126
0.4178711
0.4184805
0.4191569
0.4199176
0.4207774
0.4167446
0.4173134
0.417871
0.4184791
0.4191484
0.4199092
0.4207734
0.4167463
0.4173142
0.417871
0.4184782
0.4191457
0.4199059
0.4207698
0.4167482
0.417315
0.4178708
0.418477
0.4191434
0.4199021
0.420765
0.4167503
0.4173159
0.4178708
0.4184757
0.4191402
0.4198903
0.4207482
0.4167527
0.417317
0.4178708
0.4184743
0.4191368
0.4198767
0.4207348
0.4167554
0.4173184
0.4178709
0.4184729
0.4191339
0.4198709
0.420728
0.4167588
0.4173202
0.4178712
0.4184716
0.4191308
0.4198657
0.4207205
0.4167627
0.4173223
0.4178718
0.4184704
0.4191274
0.4198596
0.4207013
0.4167673
0.417325
0.4178728
0.4184693
0.419124
0.419853
0.4206797
0.4167713
0.4173269
0.4178739
0.4184685
0.4191208
0.4198474
0.4206692
0.4167765
0.41733
0.4178759
0.4184682
0.4191178
0.4198416
0.4206593
0.4167841
0.4173326
0.4178742
0.4184677
0.4191154
0.4198361
0.4206495
0.4167935
0.417336
0.4178709
0.4184608
0.4191124
0.4198309
0.4206413
0.4168046
0.4173426
0.4178699
0.4184586
0.4191104
0.4198263
0.4206336
0.4168171
0.4173508
0.4178731
0.4184527
0.4190985
0.4198206
0.4206267
0.4168309
0.4173594
0.4178772
0.4184456
0.4190812
0.4198009
0.4206185
0.4168453
0.4173676
0.4178808
0.4184433
0.419066
0.4197899
0.4206114
0.4168588
0.4173739
0.4178822
0.4184412
0.4190588
0.4197665
0.4205841
0.4168699
0.4173765
0.4178795
0.4184336
0.4190447
0.4197319
0.4205567
0.4168745
0.4173692
0.4178645
0.418404
0.4189969
0.4196646
0.4204826
0.4168697
0.4173387
0.4178034
0.4183163
0.4188753
0.4195459
0.4204313
0.4168409
0.4172607
0.4176574
0.4181064
0.4186836
0.4194834
0.4205053
0.4167635
0.4170888
0.4174032
0.4178581
0.4185796
0.4195409
0.4207988
0.4166016
0.4168315
0.4171478
0.4177591
0.4186264
0.4197524
0.4211033
0.416347
0.4165739
0.417057
0.4177891
0.4187568
0.4199728
0.4207653
0.4160495
0.4164552
0.4170821
0.4178437
0.4188405
0.4195736
0.4197528
0.4157815
0.4164789
0.4171162
0.4178834
0.4185194
0.4186335
0.4186005
0.415616
0.4165062
0.4170673
0.4176843
0.4177908
0.4175885
0.417634
0.4155585
0.4164922
0.4169406
0.4172194
0.4169451
0.4167377
0.4169311
0.415552
0.4164432
0.416726
0.4166536
0.4161822
0.4160549
0.4164394
0.4155329
0.4163106
0.4164702
0.4161341
0.4156201
0.415614
0.4159406
0.4154848
0.4161395
0.4161026
0.4156246
0.4151692
0.4152781
0.415555
0.4154522
0.4159921
0.415803
0.4153373
0.41495
0.4151447
0.4154546
0.4154509
0.4158915
0.4156008
0.4151257
0.4148185
0.4151026
0.4155628
0.4154492
0.4158211
0.4154626
0.4149813
0.4147392
0.4150626
0.4156065
0.4154188
0.4157665
0.415371
0.4148881
0.4146793
0.4150203
0.415599
0.4153987
0.4157525
0.4153616
0.4148784
0.4146645
0.4149969
0.4155678
0.4153879
0.4157762
0.4154293
0.414945
0.4146858
0.4149858
0.4155032
0.4153508
0.4158274
0.4155626
0.4150867
0.4147618
0.4150177
0.4154376
0.4153191
0.4159263
0.4157902
0.4153378
0.4149422
0.4151219
0.4154049
0.4153236
0.4160683
0.416117
0.4156829
0.4152313
0.4153353
0.4156236
0.4153526
0.4162208
0.4164706
0.416203
0.4157054
0.4156932
0.4160365
0.4153636
0.4163232
0.4166914
0.4167378
0.4163299
0.4161932
0.4165766
0.4153786
0.4163471
0.4168518
0.4172679
0.4171349
0.4169379
0.4171065
0.4154619
0.4163478
0.4169248
0.4176347
0.4179478
0.4178406
0.4178504
0.4156621
0.4163312
0.4169442
0.4177256
0.4185157
0.4188726
0.4188759
0.4159634
0.4163312
0.4169147
0.4176396
0.4186696
0.419625
0.419976
0.4162861
0.4164875
0.4169208
0.4176043
0.418518
0.419747
0.4207967
0.4165587
0.416772
0.4170584
0.4176129
0.4184088
0.4194417
0.4208944
0.4167346
0.4170474
0.4173461
0.417766
0.4184196
0.4193123
0.4204947
0.4168221
0.4172337
0.4176188
0.4180497
0.4185919
0.41934
0.4203031
0.4168577
0.4173201
0.4177759
0.4182774
0.4188263
0.4194791
0.420326
0.4168661
0.4173543
0.4178424
0.4183778
0.4189679
0.4196329
0.4204397
0.4168633
0.4173639
0.4178621
0.4184153
0.4190263
0.4197099
0.4205319
0.4168538
0.4173638
0.4178686
0.4184257
0.4190439
0.4197498
0.4205649
0.4168413
0.41736
0.4178707
0.4184325
0.4190592
0.4197781
0.4205962
0.4168279
0.4173537
0.41787
0.4184365
0.4190756
0.4197963
0.420606
0.4168149
0.4173462
0.417867
0.4184448
0.4190892
0.4198104
0.4206153
0.416803
0.4173392
0.4178649
0.4184522
0.4191027
0.4198175
0.4206242
0.4167923
0.4173331
0.4178666
0.4184555
0.419106
0.4198238
0.4206336
0.4167828
0.4173301
0.4178707
0.4184634
0.4191102
0.4198302
0.4206434
0.4167753
0.4173278
0.4178731
0.4184645
0.4191136
0.4198369
0.4206545
0.4167703
0.417325
0.4178714
0.4184655
0.4191173
0.4198436
0.4206653
0.4167663
0.4173235
0.4178708
0.4184668
0.4191212
0.41985
0.4206766
0.4167618
0.4173209
0.4178701
0.4184682
0.4191251
0.4198571
0.4206987
0.4167579
0.417319
0.4178698
0.4184699
0.4191289
0.4198637
0.4207185
0.4167546
0.4173173
0.4178696
0.4184716
0.4191323
0.4198692
0.4207264
0.416752
0.4173162
0.4178698
0.4184733
0.4191356
0.4198754
0.4207335
0.4167497
0.4173153
0.4178701
0.4184747
0.4191392
0.4198893
0.4207472
0.4167477
0.4173144
0.4178702
0.4184762
0.4191425
0.4199012
0.4207642
0.4167459
0.4173137
0.4178704
0.4184775
0.4191449
0.4199052
0.4207691
0.4167443
0.417313
0.4178705
0.4184786
0.419148
0.4199087
0.4207729
0.4167429
0.4173123
0.4178708
0.4184802
0.4191567
0.4199173
0.4207771
0.4167414
0.4173117
0.417871
0.4184816
0.4191641
0.419928
0.4207811
0.41674
0.4173111
0.4178711
0.4184823
0.4191657
0.4199305
0.4207839
0.4167385
0.4173104
0.4178709
0.418483
0.419167
0.4199323
0.4207865
0.4167369
0.4173094
0.4178706
0.4184838
0.4191683
0.419934
0.4207891
0.4167353
0.4173085
0.4178704
0.4184886
0.419173
0.4199359
0.4207916
0.4167334
0.4173072
0.41787
0.4184923
0.419179
0.4199379
0.4207938
0.416731
0.4173056
0.4178691
0.4184922
0.4191797
0.4199392
0.420796
0.4167282
0.4173034
0.4178677
0.4184917
0.4191801
0.4199404
0.4207981
0.4167245
0.4173006
0.4178661
0.4184911
0.4191804
0.4199418
0.4208004
0.4167198
0.4172972
0.417864
0.4184905
0.4191809
0.4199434
0.420803
0.4167137
0.4172926
0.4178616
0.4184899
0.4191818
0.4199455
0.4208061
0.4167053
0.4172865
0.417859
0.4184899
0.4191834
0.4199487
0.4208102
0.4166934
0.4172789
0.4178594
0.4184931
0.4191869
0.4199534
0.4208161
0.4166762
0.4172699
0.4178606
0.4184998
0.4191935
0.4199608
0.4208369
0.4166515
0.4172616
0.4178642
0.4185087
0.4192038
0.4199829
0.4208612
0.4166251
0.4172611
0.4178782
0.4185253
0.4192311
0.4200102
0.4208876
0.4166372
0.4172848
0.4179083
0.4185656
0.4192675
0.4200414
0.4209161
0.417143
0.4173453
0.4179773
0.4186242
0.4193114
0.4200755
0.4209454
0.4293485
0.4183637
0.4180502
0.4186976
0.4193638
0.4201115
0.4209744
0.4219907
0.4232612
0.4249537
0.4265608
0.4294134
0.4338783
0.4439658
0.4219681
0.4232326
0.4249172
0.4265184
0.4293614
0.433806
0.4435609
0.4219419
0.4232027
0.4248786
0.4270757
0.4293115
0.4337359
0.4433294
0.4219142
0.4231722
0.4248432
0.426427
0.4292592
0.4336658
0.443117
0.421887
0.4231413
0.4248055
0.4263817
0.4292073
0.433596
0.4429621
0.4218604
0.4231104
0.4247676
0.4263366
0.4291561
0.4335267
0.4428127
0.4218349
0.4230801
0.4247302
0.4262934
0.4291419
0.4334579
0.4426683
0.4218122
0.4230505
0.4246934
0.4262512
0.4291285
0.4333898
0.4425277
0.4218056
0.4230236
0.4246586
0.4262086
0.4290876
0.4333288
0.44239
0.4218007
0.4230162
0.4246263
0.4261663
0.4290474
0.4332679
0.4422552
0.4217965
0.4230108
0.4246178
0.4261253
0.4290072
0.4332071
0.4421229
0.4217928
0.4230056
0.4246112
0.4261168
0.4289669
0.4331463
0.4419934
0.4217893
0.4230007
0.4246045
0.4261091
0.4289603
0.4330841
0.441867
0.4217859
0.4229957
0.4245977
0.426101
0.4289529
0.4330728
0.4417465
0.4217825
0.4229905
0.4245907
0.4260926
0.4289449
0.4330593
0.4417831
0.4217789
0.4229852
0.4245835
0.4260839
0.4289363
0.4330449
0.4418016
0.4217753
0.4229796
0.4245761
0.4260744
0.4289232
0.4330298
0.4418087
0.4217714
0.422974
0.4245681
0.4260602
0.4288035
0.4330135
0.4418332
0.4217674
0.4229683
0.4245598
0.42605
0.4287862
0.4329969
0.4418531
0.4217631
0.4229623
0.4245511
0.4260392
0.4287728
0.4329795
0.4418804
0.4217585
0.4229559
0.4245421
0.4260278
0.4287589
0.4329612
0.4419286
0.4217534
0.422949
0.4245327
0.4260154
0.4287441
0.4329419
0.4419634
0.421748
0.4229416
0.4245223
0.4260042
0.4287252
0.4329216
0.4420018
0.4217409
0.4229334
0.4245102
0.4265526
0.4286082
0.4328892
0.4420417
0.4217334
0.4229248
0.4244987
0.4259799
0.4285486
0.4328629
0.4420849
0.4217262
0.4229156
0.4244861
0.4259582
0.4285254
0.4328383
0.4421332
0.4217167
0.4229043
0.4244713
0.42594
0.4285016
0.4328089
0.4421961
0.4216893
0.4228916
0.4244562
0.4259212
0.4284694
0.4325685
0.4422633
0.42167
0.422557
0.4240203
0.4259038
0.4284391
0.4324763
0.4423204
0.4216571
0.4225426
0.423999
0.4258819
0.4284104
0.4324394
0.4423853
0.4216193
0.4224993
0.4239813
0.4258591
0.4283798
0.4322647
0.4424421
0.4215937
0.422459
0.4239626
0.4258342
0.4283463
0.4320673
0.4424982
0.421578
0.4223978
0.4239375
0.4258079
0.4283106
0.4320105
0.4425308
0.4215664
0.422373
0.4238739
0.4257808
0.4282734
0.4319401
0.4416375
0.421556
0.4223562
0.4238062
0.4257509
0.4282355
0.4318774
0.4414996
0.4215468
0.4223416
0.4237168
0.4257088
0.4282025
0.4318215
0.4378113
0.4215402
0.4223295
0.4236937
0.4256064
0.4281818
0.4317661
0.4398581
0.4215329
0.4223222
0.4236782
0.4255332
0.428211
0.4318246
0.4379605
0.421528
0.4223301
0.4237103
0.4255904
0.4284617
0.4324207
0.4371172
0.4215499
0.4224064
0.4239559
0.4260915
0.4288361
0.4324291
0.4373498
0.4217012
0.4226412
0.4245798
0.426515
0.4280996
0.4311355
0.4377807
0.4220199
0.423129
0.4248033
0.4256474
0.4272575
0.4301448
0.4371133
0.4224347
0.4233402
0.4239046
0.4246337
0.4267071
0.4296849
0.4366431
0.4222407
0.4226922
0.4232008
0.424113
0.4258845
0.429272
0.4357697
0.4212348
0.4218315
0.4224204
0.4236693
0.4255113
0.4289831
0.43508
0.4201518
0.4212041
0.4219152
0.4230208
0.4252036
0.4278742
0.4341496
0.4191736
0.4203727
0.4210974
0.4226681
0.4241625
0.4274777
0.4310135
0.418525
0.4195882
0.4207849
0.4221319
0.4244669
0.4263629
0.4298277
0.4177391
0.4189707
0.4201358
0.421973
0.4245468
0.4273784
0.4304383
0.4170931
0.4181025
0.4194644
0.4215034
0.424134
0.4273626
0.4298665
0.416531
0.4172742
0.4183859
0.4205498
0.4235147
0.426693
0.4293491
0.4161125
0.4166411
0.4179701
0.4199615
0.4226339
0.4255427
0.4284546
0.4160442
0.4163265
0.4179866
0.4199004
0.4221258
0.424779
0.4274516
0.4161073
0.4165818
0.4178998
0.4193174
0.4216311
0.4239383
0.4276603
0.4160672
0.4166383
0.4176693
0.4191697
0.4209525
0.4209263
0.4209259
0.4159963
0.4166082
0.4175505
0.4188083
0.4200416
0.4211893
0.4159764
0.4165909
0.4175442
0.4187243
0.4199755
0.4209542
0.4159664
0.4165447
0.41762
0.4190835
0.4204357
0.4219569
0.4159232
0.4165104
0.4178907
0.4192616
0.4216097
0.4229652
0.4248932
0.4159554
0.416373
0.4180508
0.4201317
0.4223215
0.424864
0.4277543
0.4162039
0.4164658
0.4182374
0.4204327
0.4231866
0.4258402
0.4288038
0.4166463
0.4168866
0.4185226
0.4203314
0.4228723
0.4256418
0.4285839
0.4171687
0.417413
0.4190404
0.4207387
0.4229078
0.4262418
0.428908
0.417842
0.4181051
0.419528
0.4209343
0.4235904
0.4262966
0.4284175
0.4186833
0.4188482
0.4201989
0.421944
0.4235569
0.4266093
0.4315967
0.4193859
0.4197144
0.4211407
0.4221553
0.4244287
0.4269773
0.4323481
0.4202795
0.4205341
0.4216896
0.4230245
0.4246812
0.4288593
0.4345855
0.4214162
0.421415
0.4225344
0.4235343
0.4257557
0.4294336
0.4365842
0.4222431
0.4226445
0.4232332
0.4246653
0.4265644
0.4300099
0.4359425
0.4222304
0.4235664
0.4240032
0.4252795
0.4274768
0.4309265
0.4378798
0.4217349
0.4233682
0.4248829
0.4259719
0.4279399
0.43075
0.4366944
0.4215312
0.4227572
0.4247634
0.4267921
0.428499
0.430976
0.4374459
0.4214832
0.4224599
0.4241108
0.4264546
0.4289957
0.4321399
0.4382941
0.4214974
0.4223489
0.423768
0.4257819
0.4287899
0.4328288
0.4372531
0.4215122
0.4223288
0.4236687
0.4255169
0.4283713
0.4321257
0.4366942
0.4215234
0.4223355
0.423671
0.4255736
0.4281822
0.4317005
0.4383989
0.4215326
0.4223462
0.4236905
0.4256374
0.428182
0.4317754
0.4396312
0.421544
0.4223593
0.4237399
0.4257229
0.428208
0.4318364
0.441234
0.4215566
0.4223745
0.4238297
0.4257574
0.4282453
0.4319027
0.4415853
0.42157
0.4223928
0.4239124
0.4257867
0.4282847
0.4319685
0.4418971
0.4215872
0.4224384
0.4239433
0.4258153
0.4283231
0.4320344
0.4425288
0.4216141
0.4224826
0.4239671
0.4258424
0.4283592
0.4321143
0.4424737
0.4216531
0.4225378
0.4239866
0.4258675
0.4283927
0.4324051
0.4424259
0.4216669
0.4225557
0.4240056
0.42589
0.428423
0.4324567
0.442361
0.421687
0.4228894
0.4244543
0.4259172
0.4284523
0.4324956
0.4423024
0.4217148
0.4229025
0.4244697
0.4259355
0.4284859
0.4327154
0.4422406
0.4217247
0.4229141
0.4244845
0.425953
0.4285134
0.4328252
0.4421756
0.4217322
0.4229237
0.4244977
0.4259691
0.4285371
0.4328512
0.4421247
0.4217399
0.4229327
0.4245101
0.4259843
0.4285629
0.4328753
0.4420742
0.4217473
0.4229409
0.4245213
0.4259989
0.4286862
0.4329077
0.4420333
0.4217528
0.4229484
0.424532
0.4260124
0.428737
0.4329329
0.4419933
0.4217579
0.4229555
0.4245418
0.4260248
0.4287521
0.4329527
0.4419522
0.4217627
0.422962
0.424551
0.4260367
0.4287666
0.4329715
0.4419181
0.4217672
0.4229681
0.4245599
0.4260477
0.4287802
0.4329895
0.4418845
0.4217713
0.4229739
0.424568
0.4260583
0.4287931
0.4330065
0.4418577
0.4217752
0.4229796
0.424576
0.4260709
0.4288558
0.4330231
0.4418372
0.4217788
0.4229851
0.4245835
0.4260824
0.4289325
0.4330387
0.4418174
0.4217823
0.4229904
0.4245907
0.4260916
0.4289412
0.4330536
0.4417995
0.4217856
0.4229954
0.4245975
0.4261006
0.4289494
0.4330676
0.4417834
0.4217888
0.4230001
0.4246041
0.4261091
0.428957
0.4330807
0.4418338
0.421792
0.4230048
0.4246105
0.4261174
0.4289643
0.4331172
0.4419589
0.4217953
0.4230097
0.4246168
0.4261256
0.4289875
0.433178
0.4420871
0.4217988
0.4230146
0.424625
0.4261505
0.4290273
0.4332388
0.4422184
0.4218029
0.4230212
0.4246568
0.4261928
0.4290673
0.4332996
0.4423519
0.4218085
0.4230474
0.424691
0.4262356
0.4291074
0.4333606
0.4424878
0.4218299
0.4230761
0.4247271
0.4262789
0.4291459
0.4334249
0.442626
0.421854
0.4231055
0.424764
0.4263202
0.4291318
0.4334934
0.442767
0.4218793
0.4231357
0.4248014
0.4263643
0.4291812
0.4335623
0.4429115
0.4219059
0.4231667
0.4248392
0.4264083
0.4292324
0.4336315
0.4430606
0.4219339
0.4231981
0.4248772
0.4264525
0.4292839
0.4337011
0.4432349
0.4219619
0.4232291
0.4249151
0.426496
0.4293357
0.4337711
0.4434585
0.4219895
0.4232606
0.424953
0.4265389
0.4293876
0.4338419
0.4437545
0.9963932
1
1
1
1
1
1
1
1
1
1
1
1
1
1
1
1
1
0.991711
1
1
1
1
1
1
1
1
1
1
1
1
1
1
1
1
1
0.9912001
1
1
1
1
1
1
1
1
1
1
1
1
1
1
1
1
1
0.9905711
1
1
1
1
1
1
1
1
1
1
1
1
1
1
1
1
1
0.9897649
1
1
1
1
1
1
1
1
1
1
1
1
1
1
1
1
1
0.9887917
1
1
1
1
1
1
1
1
1
1
1
1
1
1
1
1
1
0.9876683
1
1
1
1
1
1
1
1
1
1
1
1
1
1
1
1
1
0.9864093
1
1
1
1
1
1
1
1
1
1
1
1
1
1
1
1
1
0.9850268
1
1
1
1
1
1
1
1
1
1
1
1
1
1
1
1
1
0.9835318
1
1
1
1
1
1
1
1
1
1
1
1
1
1
1
1
1
0.9819326
1
1
1
1
1
1
1
1
1
1
1
1
1
1
1
1
1
0.9802343
1
1
1
1
1
1
1
1
1
1
1
1
1
1
1
1
1
0.9784432
1
1
1
1
1
1
1
1
1
1
1
1
1
1
1
1
1
0.9764322
1
1
1
1
1
1
1
1
1
1
1
1
1
1
1
1
1
0.9697499
1
1
1
1
1
1
1
1
1
1
1
1
1
1
1
1
1
0.9694339
1
1
1
1
1
1
1
1
1
1
1
1
1
1
1
1
1
0.9679967
1
1
1
1
1
1
1
1
1
1
1
1
1
1
1
1
1
0.9659899
1
1
1
1
1
1
1
1
1
1
1
1
1
1
1
1
1
0.9637944
1
1
1
1
1
1
1
1
1
1
1
1
1
1
1
1
1
0.9616202
1
1
1
1
1
1
1
1
1
1
1
1
1
1
1
1
1
0.9594754
0.9999999
1
1
1
1
1
1
1
1
1
1
1
1
1
1
1
1
0.9572716
0.9999999
1
1
1
1
1
1
1
1
1
1
1
1
1
1
1
1
0.9549511
0.9999999
1
1
1
1
1
1
1
1
1
1
1
1
1
1
1
1
0.9525253
0.9999999
1
1
1
1
1
1
1
1
1
1
1
1
1
1
1
1
0.949925
0.9999998
1
1
1
1
1
1
1
1
1
1
1
1
1
1
1
1
0.9472534
0.9999998
1
1
1
1
1
1
1
1
1
1
1
1
1
1
1
1
0.9444042
0.9999998
1
1
1
1
1
1
1
1
1
1
1
1
1
1
1
1
0.9413849
0.9999997
1
1
1
1
1
1
1
1
1
1
1
1
1
1
1
1
0.9382524
0.9999996
1
1
1
1
1
1
1
1
1
1
1
1
1
1
1
1
0.9348781
0.9999996
1
1
1
1
1
1
1
1
1
1
1
1
1
1
1
1
0.9313526
0.9999995
1
1
1
1
1
1
1
1
1
1
1
1
1
1
1
1
0.9276737
0.9999994
1
1
1
1
1
1
1
1
1
1
1
1
1
1
1
1
0.9237028
0.9999993
1
1
1
1
1
1
1
1
1
1
1
1
1
1
1
1
0.9191885
0.9999993
1
1
1
1
1
1
1
1
1
1
1
1
1
1
1
1
0.9054079
0.9999986
1
1
1
1
1
1
1
1
1
1
1
1
1
1
1
1
0.898465
0.9999981
1
1
1
1
1
1
1
1
1
1
1
1
1
1
1
1
0.8882751
0.9999979
1
1
1
1
1
1
1
1
1
1
1
1
1
1
1
1
0.7918812
0.9999966
1
1
1
1
1
1
1
1
1
1
1
1
1
1
1
1
0.6618423
0.9999941
1
1
1
1
1
1
1
1
1
1
1
1
1
1
1
1
0.555458
0.999992
1
1
1
1
1
1
1
1
1
1
1
1
1
1
1
1
0.4946404
0.9994513
1
1
1
1
1
1
1
1
1
1
1
1
1
1
1
1
0.4775583
0.9998022
0.9999999
1
1
1
1
1
1
1
1
1
1
1
1
1
1
1
0.4679217
1
1
1
1
1
1
1
1
1
1
1
1
1
1
1
1
1
0.4572376
0.999713
1
1
1
1
1
1
1
1
1
1
1
1
1
1
1
1
0.4479657
0.9987812
1
1
1
1
1
1
1
1
1
1
1
1
1
1
1
1
0.4430752
0.9967725
0.9999999
1
1
1
1
1
1
1
1
1
1
1
1
1
1
1
0.4462142
0.9932827
0.9999983
1
1
1
1
1
1
1
1
1
1
1
1
1
1
1
0.4456089
0.9567468
0.9999595
0.9999999
1
1
1
1
1
1
1
1
1
1
1
1
1
1
0.442139
0.8988752
0.99957
0.9999982
1
1
1
1
1
1
1
1
1
1
1
1
1
1
0.4433793
0.8005854
0.9979811
0.9999576
1
1
1
1
1
1
1
1
1
1
0.4437974
0.4452158
1
1
1
1
1
1
1
1
0.4363106
1
1
1
1
1
1
1
1
1
1
1
1
1
1
1
1
1
1
1
1
1
1
1
1
1
1
1
1
1
1
1
1
1
1
1
1
1
1
1
1
1
1
1
1
1
1
1
1
1
0.4367381
1
1
1
1
1
1
0.4405379
0.4455775
1
1
1
1
1
1
1
0.4347013
0.70852
0.9969054
1
1
1
1
1
1
1
1
1
0.4456538
0.8720307
0.9991491
0.9999943
0.9999999
1
1
1
1
1
1
1
1
1
1
1
1
1
0.4451622
0.9227762
0.9998381
0.9999996
1
1
1
1
1
1
1
1
1
1
1
1
1
1
0.4494022
0.9781367
0.9999842
1
1
1
1
1
1
1
1
1
1
1
1
1
1
1
0.4488677
0.9940771
0.9999995
1
1
1
1
1
1
1
1
1
1
1
1
1
1
1
0.4507392
0.9968534
1
1
1
1
1
1
1
1
1
1
1
1
1
1
1
1
0.4496124
0.9985313
0.9999999
1
1
1
1
1
1
1
1
1
1
1
1
1
1
1
0.4571962
0.9993752
1
1
1
1
1
1
1
1
1
1
1
1
1
1
1
1
0.470016
0.9997786
1
1
1
1
1
1
1
1
1
1
1
1
1
1
1
1
0.4831819
0.9995964
1
1
1
1
1
1
1
1
1
1
1
1
1
1
1
1
0.5033035
0.9994226
1
1
1
1
1
1
1
1
1
1
1
1
1
1
1
1
0.5942631
0.9999855
1
1
1
1
1
1
1
1
1
1
1
1
1
1
1
1
0.6524916
1
1
1
1
1
1
1
1
1
1
1
1
1
1
1
1
1
0.8609082
0.9999979
1
1
1
1
1
1
1
1
1
1
1
1
1
1
1
1
0.8802533
0.9999979
1
1
1
1
1
1
1
1
1
1
1
1
1
1
1
1
0.8954003
0.9999982
1
1
1
1
1
1
1
1
1
1
1
1
1
1
1
1
0.9094547
0.9999987
1
1
1
1
1
1
1
1
1
1
1
1
1
1
1
1
0.9213736
0.9999995
1
1
1
1
1
1
1
1
1
1
1
1
1
1
1
1
0.925532
0.9999995
1
1
1
1
1
1
1
1
1
1
1
1
1
1
1
1
0.9293438
0.9999995
1
1
1
1
1
1
1
1
1
1
1
1
1
1
1
1
0.9329967
0.9999995
1
1
1
1
1
1
1
1
1
1
1
1
1
1
1
1
0.9365012
0.9999996
1
1
1
1
1
1
1
1
1
1
1
1
1
1
1
1
0.9397852
0.9999997
1
1
1
1
1
1
1
1
1
1
1
1
1
1
1
1
0.9428861
0.9999997
1
1
1
1
1
1
1
1
1
1
1
1
1
1
1
1
0.9458566
0.9999998
1
1
1
1
1
1
1
1
1
1
1
1
1
1
1
1
0.9487356
0.9999998
1
1
1
1
1
1
1
1
1
1
1
1
1
1
1
1
0.9512672
0.9999999
1
1
1
1
1
1
1
1
1
1
1
1
1
1
1
1
0.9539093
0.9999999
1
1
1
1
1
1
1
1
1
1
1
1
1
1
1
1
0.9562708
0.9999999
1
1
1
1
1
1
1
1
1
1
1
1
1
1
1
1
0.9585443
0.9999999
1
1
1
1
1
1
1
1
1
1
1
1
1
1
1
1
0.9606639
0.9999999
1
1
1
1
1
1
1
1
1
1
1
1
1
1
1
1
0.9628019
1
1
1
1
1
1
1
1
1
1
1
1
1
1
1
1
1
0.9650792
1
1
1
1
1
1
1
1
1
1
1
1
1
1
1
1
1
0.9672178
1
1
1
1
1
1
1
1
1
1
1
1
1
1
1
1
1
0.9692104
1
1
1
1
1
1
1
1
1
1
1
1
1
1
1
1
1
0.9706655
1
1
1
1
1
1
1
1
1
1
1
1
1
1
1
1
1
0.9749564
1
1
1
1
1
1
1
1
1
1
1
1
1
1
1
1
1
0.9774363
1
1
1
1
1
1
1
1
1
1
1
1
1
1
1
1
1
0.9789314
1
1
1
1
1
1
1
1
1
1
1
1
1
1
1
1
1
0.9806409
1
1
1
1
1
1
1
1
1
1
1
1
1
1
1
1
1
0.982271
1
1
1
1
1
1
1
1
1
1
1
1
1
1
1
1
1
0.9838068
1
1
1
1
1
1
1
1
1
1
1
1
1
1
1
1
1
0.9852444
1
1
1
1
1
1
1
1
1
1
1
1
1
1
1
1
1
0.986577
1
1
1
1
1
1
1
1
1
1
1
1
1
1
1
1
1
0.9877957
1
1
1
1
1
1
1
1
1
1
1
1
1
1
1
1
1
0.9888894
1
1
1
1
1
1
1
1
1
1
1
1
1
1
1
1
1
0.989845
1
1
1
1
1
1
1
1
1
1
1
1
1
1
1
1
1
0.9906513
1
1
1
1
1
1
1
1
1
1
1
1
1
1
1
1
1
0.9913109
1
1
1
1
1
1
1
1
1
1
1
1
1
1
1
1
1
0.9930357
1
1
1
1
1
1
1
1
1
1
1
1
1
1
1
1
1
1
1
1
1
1
1
1
1
1
1
1
1
1
1
1
1
1
1
1
1
1
1
1
1
1
1
1
1
1
1
1
1
1
1
1
1
1
1
1
1
1
1
1
1
1
1
1
1
1
1
1
1
1
1
1
1
1
1
1
1
1
1
1
1
1
1
1
1
1
1
1
1
1
1
1
1
1
1
1
1
1
1
1
1
1
1
1
1
1
1
1
1
1
1
1
1
1
1
1
1
1
1
1
1
1
1
1
1
1
1
1
1
1
1
1
1
1
1
1
1
1
1
1
1
1
1
1
1
1
1
1
1
1
1
1
1
1
1
1
1
1
1
1
1
1
1
1
1
1
1
1
1
1
1
1
1
1
1
1
1
1
1
1
1
1
1
1
1
1
1
1
1
1
1
1
1
1
1
1
1
1
1
1
1
1
1
1
1
1
1
1
1
1
1
1
1
1
1
1
1
1
1
1
1
1
1
1
1
1
1
1
1
1
1
1
1
1
1
1
1
1
1
1
1
1
1
1
1
1
1
1
1
1
1
1
1
1
1
1
1
1
1
1
1
1
1
1
1
1
1
1
1
1
1
1
1
1
1
1
1
1
1
1
1
1
1
1
1
1
1
1
1
1
1
1
1
1
1
1
1
1
1
1
1
1
1
1
1
1
1
1
1
1
1
1
1
1
1
1
1
1
1
1
1
1
1
1
1
1
1
1
1
1
1
1
1
1
1
1
1
1
1
1
1
1
1
1
1
1
1
1
1
1
1
1
1
1
1
1
1
1
1
1
1
1
1
1
1
1
1
1
1
1
1
1
1
1
1
1
1
1
1
1
1
1
1
1
1
1
1
1
1
1
1
1
1
1
1
1
1
1
1
1
1
1
1
1
1
1
1
1
1
1
1
1
1
1
1
1
1
1
1
1
1
1
1
1
1
1
1
1
1
1
1
1
1
1
1
1
1
1
1
1
1
1
1
1
1
1
1
1
1
1
1
1
1
1
1
1
1
1
1
1
1
1
1
1
1
1
1
1
1
1
1
1
1
1
1
1
1
1
1
1
1
1
1
1
1
1
1
1
1
1
1
1
1
1
1
1
1
1
1
1
1
1
1
1
1
1
1
1
1
1
1
1
1
1
1
1
1
1
1
1
1
1
1
1
1
1
1
1
1
1
1
1
1
1
1
1
1
1
1
1
1
1
1
1
1
1
1
1
1
1
1
1
1
1
1
1
1
1
1
1
1
1
1
1
1
1
1
1
1
1
1
1
1
1
1
1
1
1
1
1
1
1
1
1
1
1
1
1
1
1
1
1
1
1
1
1
1
1
1
1
1
1
1
1
1
1
1
1
1
1
1
1
1
1
1
1
1
1
1
1
1
1
1
1
1
1
1
1
1
1
1
1
1
1
1
1
1
1
1
1
1
1
1
1
1
1
1
1
1
1
1
1
1
1
1
1
1
1
1
1
1
1
1
1
1
1
1
1
1
1
1
1
1
1
1
1
1
1
1
1
1
1
1
1
1
1
1
1
1
1
1
1
1
1
1
1
1
1
1
1
1
1
1
1
1
1
1
1
1
1
1
1
1
1
1
1
1
1
1
1
1
1
1
1
1
1
1
1
1
1
1
1
1
1
1
1
1
1
1
1
1
1
1
1
1
1
1
1
1
1
1
1
1
1
1
1
1
1
1
1
1
1
1
1
1
1
1
1
1
1
1
1
1
1
1
1
1
1
1
1
1
1
1
1
1
1
1
1
1
1
1
1
1
1
1
1
1
1
1
1
1
1
1
1
1
1
1
1
1
1
1
1
1
1
1
1
1
1
1
1
1
1
1
1
1
1
1
1
1
1
1
1
1
1
1
1
1
1
1
1
1
1
1
1
1
1
1
1
1
1
1
1
1
1
1
1
1
1
1
1
1
1
1
1
1
1
1
1
1
1
1
1
1
1
1
1
1
1
1
1
1
1
1
1
1
1
1
1
1
1
1
1
1
1
1
1
1
1
1
1
1
1
1
1
1
1
1
1
1
1
1
1
1
1
1
1
1
1
1
1
1
1
1
1
1
1
1
1
1
1
1
1
1
1
1
1
1
1
1
1
1
1
1
1
1
1
1
1
1
1
1
1
1
1
1
1
1
1
1
1
1
1
1
1
1
1
1
1
1
1
1
1
1
1
1
1
1
1
1
1
1
1
1
1
1
1
1
1
1
1
1
1
1
1
1
1
1
1
1
1
1
1
1
1
1
1
1
1
1
1
1
1
1
1
1
1
1
1
1
1
1
1
1
1
1
1
1
1
1
1
1
1
1
1
1
1
1
1
1
1
1
1
1
1
1
1
1
1
1
1
1
1
1
1
1
1
1
1
1
1
1
1
1
1
1
1
1
1
1
1
1
1
1
1
1
1
1
1
1
1
1
1
1
1
1
1
1
1
1
1
1
1
1
1
1
1
1
1
1
1
1
1
1
1
1
1
1
1
1
1
1
1
1
1
1
1
1
1
1
1
1
1
1
1
1
1
1
1
1
1
1
1
1
1
1
1
1
1
1
1
1
1
1
1
1
1
1
1
1
1
1
1
1
1
1
1
1
1
1
1
1
1
1
1
1
1
1
1
1
1
1
1
1
1
1
1
1
1
1
1
1
1
1
1
1
1
1
1
1
1
1
1
1
1
1
1
1
1
1
1
1
1
1
1
1
1
1
1
1
1
1
1
1
1
1
1
1
1
1
1
1
1
1
1
1
1
1
1
1
1
1
1
1
1
1
1
1
1
1
1
1
1
1
1
1
1
1
1
1
0.4281601
0.4305409
0.4278833
0.4245638
0.4265709
0.4218456
0.4217712
0.4208996
0.4203793
0.4209304
0.4203725
0.420985
0.4212013
0.4219066
0.4264485
0.4213182
0.4212097
0.4279248
0.4311343
0.4286448
0.4273913
0.9999999
0.9999994
0.9999934
1
1
0.9999999
1
1
1
1
1
1
1
1
1
1
1
1
0.9997552
0.9993817
0.9967281
0.9999952
1
1
1
1
0.8404118
0.446592
1
1
0.4580566
0.4347647
1
1
1
1
1
1
1
1
1
1
1
1
1
1
1
1
1
1
1
1
1
1
1
1
1
1
1
1
1
1
1
1
0.4550391
0.4358326
1
1
1
0.8448793
0.4443247
1
1
1
0.9994802
0.999774
0.9980941
0.9999967
0.9999659
1
1
1
1
1
0.9999996
0.9999999
0.9999983
1
1
1
1
1
1
1
1
1
1
1
1
1
1
1
0.4278542
0.4278293
0.4265395
0.4313512
0.4313238
0.4293873
0.4374705
0.4374162
0.4338409
0.5008836
0.4912489
0.4437448
0.4278027
0.4277795
0.4264972
0.4312973
0.4312714
0.4293369
0.4373605
0.4373065
0.43377
0.484056
0.4834359
0.4434437
0.4312456
0.4312198
0.4292896
0.4372515
0.437198
0.4337009
0.482854
0.4823264
0.4432166
0.4276997
0.4276742
0.4264125
0.431193
0.4311665
0.4292323
0.437144
0.4370898
0.4336304
0.4818547
0.4814412
0.4430388
0.4276496
0.4276251
0.4263668
0.4311398
0.4311145
0.4291814
0.437036
0.4369824
0.4335609
0.4810854
0.4807855
0.4428863
0.4310883
0.4310628
0.4291324
0.4369308
0.4368861
0.4334924
0.4805377
0.4803407
0.4427399
0.4275732
0.4275778
0.4262805
0.43104
0.4310165
0.4291463
0.4368413
0.4367964
0.4334237
0.4801904
0.4800852
0.4425973
0.430991
0.430966
0.4291073
0.4367516
0.4367069
0.433359
0.4800217
0.4799987
0.4424582
0.4275163
0.4274956
0.4261941
0.4309402
0.4309155
0.4290669
0.4366618
0.4366175
0.4332977
0.4800131
0.4800628
0.4423222
0.4274748
0.4274543
0.4261516
0.43089
0.4308674
0.4290272
0.4365726
0.4365282
0.433237
0.4801467
0.4802618
0.4421886
0.4274337
0.4274141
0.4261264
0.4308443
0.4308216
0.4289871
0.4364834
0.436439
0.4331763
0.4804084
0.4805848
0.4420574
0.4274112
0.4274073
0.4261178
0.4307984
0.4307748
0.4289634
0.4363942
0.4363499
0.4331156
0.4807894
0.481024
0.4419295
0.4274031
0.4273995
0.4261091
0.4307708
0.4307666
0.4289561
0.4363052
0.4362584
0.4330794
0.481283
0.4815448
0.4418057
0.4273951
0.4273912
0.4261004
0.4307617
0.430757
0.4289486
0.4362516
0.4362414
0.433066
0.4818841
0.4808906
0.4417561
0.4273868
0.4273826
0.4260921
0.4307516
0.4307467
0.4289408
0.4362305
0.4362205
0.4330519
0.4813269
0.4793155
0.4417749
0.4273785
0.4273735
0.4260832
0.4307414
0.4307358
0.4289326
0.4362086
0.4361984
0.4330374
0.4796201
0.4788788
0.4417957
0.4273666
0.4273187
0.4260708
0.4307305
0.4307194
0.4288552
0.4361867
0.4361755
0.4330221
0.4786292
0.4783346
0.4418185
0.4272658
0.4272547
0.4260577
0.4307094
0.4307032
0.428792
0.4361637
0.4361512
0.4330056
0.478045
0.4777804
0.4418404
0.4272476
0.4272418
0.4260472
0.4306968
0.4306904
0.4287795
0.436139
0.4361261
0.4329883
0.4774903
0.4772219
0.4418659
0.4272348
0.4272282
0.4260366
0.4306836
0.4306769
0.4287662
0.4361126
0.4360995
0.4329702
0.476991
0.4767639
0.441902
0.4272216
0.427214
0.4260251
0.43067
0.4306627
0.428752
0.4360852
0.4360719
0.4329509
0.4765426
0.4763344
0.4419368
0.4272068
0.4271984
0.4260128
0.4306551
0.4306475
0.4287364
0.4360566
0.4360428
0.4329315
0.4761108
0.4759097
0.4419773
0.4271891
0.4271875
0.4259943
0.4306377
0.4305783
0.428686
0.4360277
0.4360123
0.4329072
0.4756764
0.4754725
0.4420172
0.4304841
0.4304354
0.4285655
0.4359964
0.4359798
0.4328753
0.4752453
0.4750205
0.4420616
0.4271447
0.4271408
0.4259726
0.430422
0.4304103
0.4285368
0.4359631
0.4359457
0.4328508
0.4747947
0.4745835
0.4421107
0.4271326
0.4271232
0.4259539
0.4303983
0.4303861
0.4285137
0.4359275
0.4359094
0.4328251
0.4743604
0.4741378
0.4421647
0.4271127
0.4271025
0.4259369
0.4303684
0.4303091
0.4284865
0.4358902
0.4358632
0.4327164
0.473913
0.4736856
0.4422306
0.4270917
0.4270799
0.4259194
0.4302
0.4301367
0.4284546
0.4358317
0.4358055
0.4324968
0.4734553
0.4732276
0.442294
0.4232275
0.4232257
0.4225584
0.4248907
0.424886
0.4240077
0.4270682
0.4270552
0.425893
0.430115
0.4300972
0.4284247
0.4357851
0.4357643
0.4324585
0.4730014
0.472764
0.4423529
0.4232197
0.4232129
0.4225415
0.4248781
0.4248686
0.4239906
0.4270424
0.4270293
0.4258701
0.4300793
0.4300608
0.428395
0.4357435
0.4357105
0.4324068
0.4725238
0.4722865
0.4424196
0.4232026
0.4231926
0.4224878
0.4248584
0.424848
0.4239718
0.4270149
0.4270011
0.4258464
0.4300366
0.4300115
0.4283627
0.4354732
0.4352999
0.4321176
0.4720482
0.4718002
0.4424694
0.4231792
0.4231408
0.4224447
0.4248367
0.4248259
0.4239497
0.4269856
0.4269709
0.4258213
0.4299898
0.4299683
0.4283286
0.4352534
0.435226
0.4320394
0.4715594
0.4713115
0.4425275
0.4231145
0.4230952
0.4224006
0.4248146
0.4248032
0.4239208
0.4269558
0.4269402
0.4257949
0.4299462
0.4299236
0.4282934
0.4351764
0.4349265
0.431975
0.4710448
0.4706982
0.4419014
0.4230588
0.4230207
0.4223843
0.4247881
0.4247724
0.423839
0.4269255
0.426909
0.4257678
0.4299016
0.429878
0.4282553
0.4347158
0.4346437
0.4319103
0.4703055
0.4692765
0.4416093
0.4230011
0.4229901
0.4223707
0.4247342
0.4246797
0.4237513
0.4268938
0.4268791
0.4257341
0.4298545
0.4298309
0.4282181
0.4345918
0.4345323
0.4318448
0.4683082
0.4681044
0.4413421
0.4229809
0.422973
0.4223594
0.4246427
0.4245912
0.4237033
0.4268667
0.4268493
0.425647
0.4298119
0.4297972
0.4281899
0.4345146
0.4344253
0.4317977
0.4662471
0.4641613
0.4398409
0.4229653
0.4229592
0.4223511
0.4245393
0.424513
0.4236849
0.4268373
0.4268254
0.425578
0.4297906
0.4297916
0.4281786
0.4342794
0.4340678
0.4317553
0.4638173
0.4635583
0.4392523
0.4229541
0.422954
0.4223492
0.4245069
0.4245209
0.4236827
0.4267943
0.4268288
0.4255147
0.429878
0.4300812
0.4283386
0.4339288
0.4340823
0.4320629
0.4534506
0.450317
0.4370034
0.4229702
0.4230176
0.4223817
0.4245765
0.4247104
0.4237989
0.4268957
0.4270636
0.4257891
0.4303163
0.4305799
0.4287158
0.4345326
0.435012
0.4326763
0.4495499
0.4480845
0.4371976
0.4231258
0.4232938
0.4225569
0.4249436
0.4252919
0.4242156
0.4273281
0.4275221
0.4264305
0.430472
0.4299613
0.4285641
0.4351129
0.4346595
0.4317855
0.4465453
0.4448552
0.4377688
0.4235723
0.4238818
0.4230093