/*--------------------------------*- C++ -*----------------------------------*\
| =========                 |                                                 |
| \\      /  F ield         | OpenFOAM: The Open Source CFD Toolbox           |
|  \\    /   O peration     | Version:  2206                                  |
|   \\  /    A nd           | Website:  www.openfoam.com                      |
|    \\/     M anipulation  |                                                 |
\*---------------------------------------------------------------------------*/
FoamFile
{
    version     2.0;
    format      ascii;
    arch        "LSB;label=32;scalar=64";
    class       volScalarField;
    location    "1.4";
    object      alpha.a;
}
// * * * * * * * * * * * * * * * * * * * * * * * * * * * * * * * * * * * * * //

dimensions      [0 0 0 0 0 0 0];

internalField   nonuniform List<scalar> 
13078
(
0.4653339
0.5676811
0.5812573
0.581225
0.5806168
0.5798817
0.5790229
0.5703935
0.5815109
0.58191
0.5813103
0.5806502
0.5799042
0.5790436
0.5828544
0.5826432
0.5820292
0.581384
0.5806987
0.5799373
0.5790707
0.5833639
0.5827145
0.5820869
0.5814429
0.5807436
0.5799715
0.5790999
0.5833751
0.5827382
0.5821211
0.5814731
0.5807794
0.5800033
0.5791282
0.5833484
0.5827378
0.5821353
0.5814913
0.5807962
0.5800297
0.579155
0.5833236
0.5827299
0.5821413
0.5815032
0.5808074
0.5800404
0.579178
0.5833063
0.5827208
0.5821435
0.5815092
0.5808137
0.5800475
0.5791858
0.5832942
0.5827131
0.5821412
0.5815105
0.580817
0.5800522
0.5791913
0.5832857
0.5827071
0.5821385
0.5815105
0.5808188
0.5800554
0.5791953
0.5832796
0.5827024
0.582136
0.5815099
0.5808197
0.5800576
0.5791986
0.5832748
0.582699
0.582134
0.5815092
0.5808202
0.5800593
0.5792013
0.5832712
0.5826963
0.5821323
0.5815086
0.5808206
0.5800608
0.5792037
0.5832682
0.5826942
0.582131
0.5815084
0.5808213
0.5800622
0.5792061
0.5832658
0.5826925
0.5821303
0.581512
0.5808273
0.5800642
0.5792083
0.5832638
0.5826912
0.5821299
0.5815166
0.5808319
0.580066
0.5792108
0.5832619
0.58269
0.5821294
0.5815172
0.5808331
0.5800677
0.5792133
0.5832602
0.582689
0.5821291
0.5815177
0.5808343
0.5800695
0.579216
0.5832586
0.5826881
0.5821289
0.5815183
0.5808358
0.5800719
0.5792187
0.583257
0.5826874
0.5821289
0.5815195
0.5808431
0.5800824
0.5792226
0.5832554
0.5826866
0.582129
0.5815209
0.5808516
0.5800908
0.5792266
0.5832537
0.5826858
0.582129
0.5815218
0.5808543
0.5800941
0.5792302
0.5832518
0.582685
0.5821292
0.581523
0.5808566
0.5800979
0.579235
0.5832497
0.5826841
0.5821292
0.5815243
0.5808598
0.5801097
0.5792518
0.5832473
0.582683
0.5821292
0.5815257
0.5808632
0.5801233
0.5792652
0.5832446
0.5826816
0.5821291
0.5815271
0.5808661
0.5801291
0.579272
0.5832412
0.5826798
0.5821288
0.5815284
0.5808692
0.5801343
0.5792795
0.5832373
0.5826777
0.5821282
0.5815296
0.5808726
0.5801404
0.5792987
0.5832327
0.582675
0.5821272
0.5815307
0.580876
0.580147
0.5793203
0.5832287
0.5826731
0.5821261
0.5815315
0.5808792
0.5801526
0.5793308
0.5832235
0.58267
0.5821241
0.5815318
0.5808822
0.5801584
0.5793407
0.5832159
0.5826674
0.5821258
0.5815323
0.5808846
0.5801639
0.5793505
0.5832065
0.582664
0.5821291
0.5815392
0.5808876
0.5801691
0.5793587
0.5831954
0.5826574
0.5821301
0.5815414
0.5808896
0.5801737
0.5793664
0.5831829
0.5826492
0.5821269
0.5815473
0.5809015
0.5801794
0.5793733
0.5831691
0.5826406
0.5821228
0.5815544
0.5809188
0.5801991
0.5793815
0.5831547
0.5826324
0.5821192
0.5815567
0.580934
0.5802101
0.5793886
0.5831412
0.5826261
0.5821178
0.5815588
0.5809412
0.5802335
0.5794159
0.5831301
0.5826235
0.5821205
0.5815664
0.5809553
0.5802681
0.5794433
0.5831255
0.5826308
0.5821355
0.581596
0.5810031
0.5803354
0.5795174
0.5831303
0.5826613
0.5821966
0.5816837
0.5811247
0.5804541
0.5795687
0.5831591
0.5827393
0.5823426
0.5818936
0.5813164
0.5805166
0.5794947
0.5832365
0.5829112
0.5825968
0.5821419
0.5814204
0.5804591
0.5792012
0.5833984
0.5831685
0.5828522
0.5822409
0.5813736
0.5802476
0.5788967
0.583653
0.5834261
0.582943
0.5822109
0.5812432
0.5800272
0.5792347
0.5839505
0.5835448
0.5829179
0.5821563
0.5811595
0.5804264
0.5802472
0.5842185
0.5835211
0.5828838
0.5821166
0.5814806
0.5813665
0.5813995
0.584384
0.5834938
0.5829327
0.5823157
0.5822092
0.5824115
0.582366
0.5844415
0.5835078
0.5830594
0.5827806
0.5830549
0.5832623
0.5830689
0.584448
0.5835568
0.583274
0.5833464
0.5838178
0.5839451
0.5835606
0.5844671
0.5836894
0.5835298
0.5838659
0.5843799
0.584386
0.5840594
0.5845152
0.5838605
0.5838974
0.5843754
0.5848308
0.5847219
0.584445
0.5845478
0.5840079
0.584197
0.5846627
0.58505
0.5848553
0.5845454
0.5845491
0.5841085
0.5843992
0.5848743
0.5851815
0.5848974
0.5844372
0.5845508
0.5841789
0.5845374
0.5850187
0.5852608
0.5849374
0.5843935
0.5845812
0.5842335
0.584629
0.5851119
0.5853207
0.5849797
0.584401
0.5846013
0.5842475
0.5846384
0.5851216
0.5853355
0.5850031
0.5844322
0.5846121
0.5842238
0.5845707
0.585055
0.5853142
0.5850142
0.5844968
0.5846492
0.5841726
0.5844374
0.5849133
0.5852382
0.5849823
0.5845624
0.5846809
0.5840737
0.5842098
0.5846622
0.5850578
0.5848781
0.5845951
0.5846764
0.5839317
0.583883
0.5843171
0.5847687
0.5846647
0.5843764
0.5846474
0.5837792
0.5835294
0.583797
0.5842946
0.5843068
0.5839635
0.5846364
0.5836768
0.5833086
0.5832622
0.5836701
0.5838068
0.5834234
0.5846214
0.5836529
0.5831482
0.5827321
0.5828651
0.5830621
0.5828935
0.5845381
0.5836522
0.5830752
0.5823653
0.5820522
0.5821594
0.5821496
0.5843379
0.5836688
0.5830558
0.5822744
0.5814843
0.5811274
0.5811241
0.5840366
0.5836688
0.5830853
0.5823604
0.5813304
0.580375
0.580024
0.5837139
0.5835125
0.5830792
0.5823957
0.581482
0.580253
0.5792033
0.5834413
0.583228
0.5829416
0.5823871
0.5815912
0.5805583
0.5791056
0.5832654
0.5829526
0.5826539
0.582234
0.5815804
0.5806877
0.5795053
0.5831779
0.5827663
0.5823812
0.5819503
0.5814081
0.58066
0.5796969
0.5831423
0.5826799
0.5822241
0.5817226
0.5811737
0.5805209
0.579674
0.5831339
0.5826457
0.5821576
0.5816222
0.5810321
0.5803671
0.5795603
0.5831367
0.5826361
0.5821379
0.5815847
0.5809737
0.5802901
0.5794681
0.5831462
0.5826362
0.5821314
0.5815743
0.5809561
0.5802502
0.5794351
0.5831587
0.58264
0.5821293
0.5815675
0.5809408
0.5802219
0.5794038
0.5831721
0.5826463
0.58213
0.5815635
0.5809244
0.5802037
0.579394
0.5831851
0.5826538
0.582133
0.5815552
0.5809108
0.5801896
0.5793847
0.583197
0.5826608
0.5821351
0.5815478
0.5808973
0.5801825
0.5793758
0.5832077
0.5826669
0.5821334
0.5815445
0.580894
0.5801762
0.5793664
0.5832172
0.5826699
0.5821293
0.5815366
0.5808898
0.5801698
0.5793566
0.5832247
0.5826722
0.5821269
0.5815355
0.5808864
0.5801631
0.5793455
0.5832297
0.582675
0.5821286
0.5815345
0.5808827
0.5801564
0.5793347
0.5832337
0.5826765
0.5821292
0.5815332
0.5808788
0.58015
0.5793234
0.5832382
0.5826791
0.5821299
0.5815318
0.5808749
0.5801429
0.5793013
0.5832421
0.582681
0.5821302
0.5815301
0.5808711
0.5801363
0.5792815
0.5832454
0.5826827
0.5821304
0.5815284
0.5808677
0.5801308
0.5792736
0.583248
0.5826838
0.5821302
0.5815267
0.5808644
0.5801246
0.5792665
0.5832503
0.5826847
0.5821299
0.5815253
0.5808608
0.5801107
0.5792528
0.5832523
0.5826856
0.5821298
0.5815238
0.5808575
0.5800988
0.5792358
0.5832541
0.5826863
0.5821296
0.5815225
0.5808551
0.5800948
0.5792309
0.5832557
0.582687
0.5821295
0.5815214
0.580852
0.5800913
0.5792271
0.5832571
0.5826877
0.5821292
0.5815198
0.5808433
0.5800827
0.5792229
0.5832586
0.5826883
0.582129
0.5815184
0.5808359
0.580072
0.5792189
0.58326
0.5826889
0.5821289
0.5815177
0.5808343
0.5800695
0.5792161
0.5832615
0.5826896
0.5821291
0.581517
0.580833
0.5800677
0.5792135
0.5832631
0.5826906
0.5821294
0.5815162
0.5808317
0.580066
0.5792109
0.5832647
0.5826915
0.5821296
0.5815114
0.580827
0.5800641
0.5792084
0.5832666
0.5826928
0.58213
0.5815077
0.580821
0.5800621
0.5792062
0.583269
0.5826944
0.5821309
0.5815078
0.5808203
0.5800608
0.579204
0.5832718
0.5826966
0.5821323
0.5815083
0.5808199
0.5800596
0.5792019
0.5832755
0.5826994
0.5821339
0.5815089
0.5808196
0.5800582
0.5791996
0.5832802
0.5827028
0.582136
0.5815095
0.5808191
0.5800566
0.579197
0.5832863
0.5827074
0.5821384
0.5815101
0.5808182
0.5800545
0.5791939
0.5832947
0.5827135
0.582141
0.5815101
0.5808166
0.5800513
0.5791898
0.5833066
0.5827211
0.5821406
0.5815069
0.5808131
0.5800466
0.5791839
0.5833238
0.5827301
0.5821394
0.5815002
0.5808065
0.5800392
0.5791631
0.5833485
0.5827384
0.5821358
0.5814913
0.5807962
0.5800171
0.5791388
0.5833749
0.5827389
0.5821218
0.5814747
0.5807689
0.5799898
0.5791124
0.5833628
0.5827152
0.5820917
0.5814344
0.5807325
0.5799586
0.5790839
0.582857
0.5826547
0.5820227
0.5813758
0.5806886
0.5799245
0.5790546
0.5706515
0.5816363
0.5819498
0.5813024
0.5806362
0.5798885
0.5790256
0.5780093
0.5767388
0.5750463
0.5734392
0.5705866
0.5661217
0.5560342
0.5780319
0.5767674
0.5750828
0.5734816
0.5706386
0.566194
0.5564391
0.5780581
0.5767973
0.5751214
0.5729243
0.5706885
0.5662641
0.5566706
0.5780858
0.5768278
0.5751568
0.573573
0.5707408
0.5663342
0.556883
0.578113
0.5768587
0.5751945
0.5736183
0.5707927
0.566404
0.5570379
0.5781396
0.5768896
0.5752324
0.5736634
0.5708439
0.5664733
0.5571873
0.5781651
0.5769199
0.5752698
0.5737066
0.5708581
0.5665421
0.5573317
0.5781878
0.5769495
0.5753066
0.5737488
0.5708715
0.5666102
0.5574723
0.5781944
0.5769764
0.5753414
0.5737914
0.5709124
0.5666712
0.55761
0.5781993
0.5769838
0.5753737
0.5738337
0.5709526
0.5667321
0.5577448
0.5782035
0.5769892
0.5753822
0.5738747
0.5709928
0.5667929
0.5578771
0.5782072
0.5769944
0.5753888
0.5738832
0.5710331
0.5668537
0.5580066
0.5782107
0.5769993
0.5753955
0.5738909
0.5710397
0.5669159
0.558133
0.5782141
0.5770043
0.5754023
0.573899
0.5710471
0.5669272
0.5582535
0.5782175
0.5770095
0.5754093
0.5739074
0.5710551
0.5669407
0.5582169
0.5782211
0.5770148
0.5754165
0.5739161
0.5710637
0.5669551
0.5581984
0.5782247
0.5770204
0.5754239
0.5739256
0.5710768
0.5669702
0.5581913
0.5782286
0.577026
0.5754319
0.5739398
0.5711965
0.5669865
0.5581668
0.5782326
0.5770317
0.5754402
0.57395
0.5712138
0.5670031
0.5581469
0.5782369
0.5770377
0.5754489
0.5739608
0.5712272
0.5670205
0.5581196
0.5782415
0.5770441
0.5754579
0.5739722
0.5712411
0.5670388
0.5580714
0.5782466
0.577051
0.5754673
0.5739846
0.5712559
0.5670581
0.5580366
0.578252
0.5770584
0.5754777
0.5739958
0.5712748
0.5670784
0.5579982
0.5782591
0.5770666
0.5754898
0.5734474
0.5713918
0.5671108
0.5579583
0.5782666
0.5770752
0.5755013
0.5740201
0.5714514
0.5671371
0.5579151
0.5782738
0.5770844
0.5755139
0.5740418
0.5714746
0.5671617
0.5578668
0.5782833
0.5770957
0.5755287
0.57406
0.5714984
0.5671911
0.5578039
0.5783107
0.5771084
0.5755438
0.5740788
0.5715306
0.5674315
0.5577367
0.57833
0.577443
0.5759797
0.5740962
0.5715609
0.5675237
0.5576796
0.5783429
0.5774574
0.576001
0.5741181
0.5715896
0.5675606
0.5576147
0.5783807
0.5775007
0.5760187
0.5741409
0.5716202
0.5677353
0.5575579
0.5784063
0.577541
0.5760374
0.5741658
0.5716537
0.5679327
0.5575018
0.578422
0.5776022
0.5760625
0.5741921
0.5716894
0.5679895
0.5574692
0.5784336
0.577627
0.5761261
0.5742192
0.5717266
0.5680599
0.5583625
0.578444
0.5776438
0.5761938
0.5742491
0.5717645
0.5681226
0.5585004
0.5784532
0.5776584
0.5762832
0.5742912
0.5717975
0.5681785
0.5621887
0.5784598
0.5776705
0.5763063
0.5743936
0.5718182
0.5682339
0.5601419
0.5784671
0.5776778
0.5763218
0.5744668
0.571789
0.5681754
0.5620395
0.578472
0.5776699
0.5762897
0.5744096
0.5715383
0.5675793
0.5628828
0.5784501
0.5775936
0.5760441
0.5739085
0.5711639
0.5675709
0.5626502
0.5782988
0.5773588
0.5754202
0.573485
0.5719004
0.5688645
0.5622193
0.5779801
0.576871
0.5751967
0.5743526
0.5727425
0.5698552
0.5628867
0.5775653
0.5766598
0.5760954
0.5753663
0.5732929
0.5703151
0.5633569
0.5777593
0.5773078
0.5767992
0.575887
0.5741155
0.570728
0.5642303
0.5787652
0.5781685
0.5775796
0.5763307
0.5744887
0.5710169
0.56492
0.5798482
0.5787959
0.5780848
0.5769792
0.5747964
0.5721258
0.5658504
0.5808264
0.5796273
0.5789026
0.5773319
0.5758375
0.5725223
0.5689865
0.581475
0.5804118
0.5792151
0.5778681
0.5755331
0.5736371
0.5701723
0.5822609
0.5810293
0.5798642
0.578027
0.5754532
0.5726216
0.5695617
0.5829069
0.5818975
0.5805356
0.5784966
0.575866
0.5726374
0.5701335
0.583469
0.5827258
0.5816141
0.5794502
0.5764853
0.573307
0.5706509
0.5838875
0.5833589
0.5820299
0.5800385
0.5773661
0.5744573
0.5715454
0.5839558
0.5836735
0.5820134
0.5800996
0.5778742
0.575221
0.5725484
0.5838927
0.5834182
0.5821002
0.5806826
0.5783689
0.5760617
0.5723397
0.5839328
0.5833617
0.5823307
0.5808303
0.5790475
0.5790737
0.5790741
0.5840037
0.5833918
0.5824495
0.5811917
0.5799584
0.5788107
0.5840236
0.5834091
0.5824558
0.5812757
0.5800245
0.5790458
0.5840336
0.5834553
0.58238
0.5809165
0.5795643
0.5780431
0.5840768
0.5834896
0.5821093
0.5807384
0.5783903
0.5770348
0.5751068
0.5840446
0.583627
0.5819492
0.5798683
0.5776785
0.575136
0.5722457
0.5837961
0.5835342
0.5817626
0.5795673
0.5768134
0.5741598
0.5711962
0.5833537
0.5831134
0.5814774
0.5796686
0.5771277
0.5743582
0.5714161
0.5828313
0.582587
0.5809596
0.5792613
0.5770922
0.5737582
0.571092
0.582158
0.5818949
0.580472
0.5790657
0.5764096
0.5737034
0.5715825
0.5813167
0.5811518
0.5798011
0.578056
0.5764431
0.5733907
0.5684033
0.5806141
0.5802856
0.5788593
0.5778447
0.5755713
0.5730227
0.5676519
0.5797205
0.5794659
0.5783104
0.5769755
0.5753188
0.5711407
0.5654145
0.5785838
0.578585
0.5774656
0.5764657
0.5742443
0.5705664
0.5634158
0.5777569
0.5773555
0.5767668
0.5753347
0.5734356
0.5699901
0.5640575
0.5777696
0.5764336
0.5759968
0.5747205
0.5725232
0.5690735
0.5621202
0.5782651
0.5766318
0.5751171
0.5740281
0.5720601
0.56925
0.5633056
0.5784688
0.5772428
0.5752366
0.5732079
0.571501
0.569024
0.5625541
0.5785168
0.5775401
0.5758892
0.5735454
0.5710043
0.5678601
0.5617059
0.5785026
0.5776511
0.576232
0.5742181
0.5712101
0.5671712
0.5627469
0.5784878
0.5776712
0.5763313
0.5744831
0.5716287
0.5678743
0.5633058
0.5784766
0.5776645
0.576329
0.5744264
0.5718178
0.5682995
0.5616011
0.5784674
0.5776538
0.5763095
0.5743626
0.571818
0.5682246
0.5603688
0.578456
0.5776407
0.5762601
0.5742771
0.571792
0.5681636
0.558766
0.5784434
0.5776255
0.5761703
0.5742426
0.5717547
0.5680973
0.5584147
0.57843
0.5776072
0.5760876
0.5742133
0.5717153
0.5680315
0.5581029
0.5784128
0.5775616
0.5760567
0.5741847
0.5716769
0.5679656
0.5574712
0.5783859
0.5775174
0.5760329
0.5741576
0.5716408
0.5678857
0.5575263
0.5783469
0.5774622
0.5760134
0.5741325
0.5716073
0.5675949
0.5575741
0.5783331
0.5774443
0.5759944
0.57411
0.571577
0.5675433
0.557639
0.578313
0.5771106
0.5755457
0.5740828
0.5715477
0.5675044
0.5576976
0.5782852
0.5770975
0.5755303
0.5740645
0.5715141
0.5672846
0.5577594
0.5782753
0.5770859
0.5755155
0.574047
0.5714866
0.5671748
0.5578244
0.5782678
0.5770763
0.5755023
0.5740309
0.5714629
0.5671488
0.5578753
0.5782601
0.5770673
0.5754899
0.5740157
0.5714371
0.5671247
0.5579258
0.5782527
0.5770591
0.5754787
0.5740011
0.5713138
0.5670923
0.5579667
0.5782472
0.5770516
0.575468
0.5739876
0.571263
0.5670671
0.5580067
0.5782421
0.5770445
0.5754582
0.5739752
0.5712479
0.5670473
0.5580478
0.5782373
0.577038
0.575449
0.5739633
0.5712334
0.5670285
0.5580819
0.5782328
0.5770319
0.5754401
0.5739523
0.5712198
0.5670105
0.5581155
0.5782287
0.5770261
0.575432
0.5739417
0.5712069
0.5669935
0.5581423
0.5782248
0.5770204
0.575424
0.5739291
0.5711442
0.5669769
0.5581628
0.5782212
0.5770149
0.5754165
0.5739176
0.5710675
0.5669613
0.5581826
0.5782177
0.5770096
0.5754093
0.5739084
0.5710588
0.5669464
0.5582005
0.5782144
0.5770046
0.5754025
0.5738994
0.5710506
0.5669324
0.5582166
0.5782112
0.5769999
0.5753959
0.5738909
0.571043
0.5669193
0.5581662
0.578208
0.5769952
0.5753895
0.5738826
0.5710357
0.5668828
0.5580411
0.5782047
0.5769903
0.5753832
0.5738744
0.5710125
0.566822
0.5579129
0.5782012
0.5769854
0.575375
0.5738495
0.5709727
0.5667612
0.5577816
0.5781971
0.5769788
0.5753432
0.5738072
0.5709327
0.5667004
0.5576481
0.5781915
0.5769526
0.575309
0.5737644
0.5708926
0.5666394
0.5575122
0.5781701
0.5769239
0.5752729
0.5737211
0.5708541
0.5665751
0.557374
0.578146
0.5768945
0.575236
0.5736798
0.5708682
0.5665066
0.557233
0.5781207
0.5768643
0.5751986
0.5736357
0.5708188
0.5664377
0.5570885
0.5780941
0.5768333
0.5751608
0.5735917
0.5707676
0.5663685
0.5569394
0.5780661
0.5768019
0.5751228
0.5735475
0.5707161
0.5662989
0.5567651
0.5780381
0.5767709
0.5750849
0.573504
0.5706643
0.5662289
0.5565415
0.5780105
0.5767394
0.575047
0.5734611
0.5706124
0.5661581
0.5562455
0.003606763
2.207626e-10
5.41919e-15
1.344556e-20
1.093857e-26
9.637689e-33
5.866486e-39
2.603268e-45
3.537068e-52
5.848987e-59
9.981022e-66
1.766447e-72
4.183488e-79
1.260778e-85
1.553923e-91
4.014803e-98
2.118173e-104
9.750875e-111
0.008289024
4.162737e-10
1.206315e-15
3.195051e-21
3.182675e-27
3.322184e-33
2.428564e-39
1.34564e-45
2.614766e-52
6.302059e-59
1.496687e-65
3.122879e-72
6.441349e-79
1.209323e-85
8.672801e-92
2.599751e-99
3.163254e-106
5.285358e-113
0.008799927
1.889961e-09
2.496422e-15
3.319168e-21
2.728256e-27
2.506683e-33
1.832403e-39
1.092277e-45
2.495018e-52
6.703001e-59
1.896686e-65
5.235249e-72
1.327161e-78
2.88399e-85
2.18388e-91
7.071198e-99
7.69548e-106
7.423505e-113
0.009428873
2.400106e-09
3.877305e-15
6.028207e-21
5.137431e-27
4.710101e-33
3.390989e-39
2.074227e-45
4.649044e-52
1.381978e-58
4.206299e-65
1.249428e-71
3.447402e-78
8.603892e-85
7.042119e-91
2.690002e-98
3.372711e-105
3.665375e-112
0.0102351
2.668012e-09
5.232212e-15
9.032832e-21
8.897269e-27
8.776044e-33
6.858047e-39
4.381474e-45
1.118067e-51
3.445684e-58
1.197427e-64
3.815439e-71
1.143826e-77
3.239317e-84
0
2.896296e-97
1.64871e-104
2.23207e-111
0.01120827
3.037337e-09
6.671396e-15
1.310584e-20
1.500476e-26
1.617981e-32
1.381161e-38
9.568041e-45
2.673529e-51
9.636731e-58
3.722297e-64
1.403435e-70
4.517042e-77
1.436246e-83
2.037349e-90
1.43815e-96
1.209856e-103
1.768577e-110
0.0123317
3.39868e-09
8.559435e-15
1.900315e-20
2.497778e-26
3.007055e-32
2.806966e-38
2.164008e-44
6.975611e-51
2.878533e-57
1.279968e-63
5.329755e-70
2.025376e-76
7.025291e-83
2.715207e-89
8.212467e-96
9.178229e-103
1.487773e-109
0.01359068
3.86592e-09
1.108147e-14
2.731216e-20
4.146918e-26
5.456795e-32
5.829518e-38
5.002842e-44
1.848736e-50
9.298096e-57
4.643932e-63
2.210337e-69
9.459797e-76
3.843213e-82
1.636421e-88
5.57729e-95
7.002777e-102
1.332792e-108
0.01497318
4.647132e-09
1.457945e-14
3.989016e-20
7.001697e-26
1.023579e-31
1.215627e-37
1.194154e-43
5.220189e-50
2.99105e-56
1.77469e-62
9.661425e-69
4.786553e-75
2.171917e-81
1.040153e-87
3.980413e-94
6.020306e-101
1.323285e-107
0.01646823
5.553841e-09
1.961604e-14
5.92818e-20
1.209225e-25
1.971934e-31
2.641232e-37
2.955273e-43
1.550071e-49
1.027553e-55
7.119098e-62
4.453292e-68
2.611953e-74
1.320331e-80
7.244146e-87
3.159296e-93
5.564379e-100
1.370743e-106
0.01806744
6.606511e-09
2.642185e-14
9.035612e-20
2.151345e-25
3.973316e-31
5.922072e-37
7.665814e-43
4.751224e-49
3.717183e-55
2.97607e-61
2.198711e-67
1.455668e-73
8.562563e-80
5.239702e-86
2.588017e-92
5.028629e-99
1.41872e-105
0.01976572
8.300683e-09
3.703084e-14
1.430059e-19
4.024778e-25
8.30265e-31
1.441031e-36
2.139389e-42
1.547118e-48
1.45167e-54
1.33295e-60
1.127532e-66
8.595112e-73
5.733978e-79
3.987734e-85
2.165312e-91
5.256742e-98
1.650253e-104
0.02155681
1.039151e-08
5.426582e-14
2.424585e-19
8.194266e-25
1.922542e-30
3.850062e-36
6.535062e-42
5.454429e-48
5.96633e-54
6.321334e-60
6.220612e-66
5.38174e-72
4.077858e-78
3.290952e-84
1.943917e-90
5.34069e-97
1.950939e-103
0.02356783
1.551717e-08
9.411687e-14
4.876913e-19
2.152669e-24
5.723604e-30
1.277334e-35
2.447437e-41
2.348049e-47
2.861894e-53
3.538772e-59
3.823294e-65
3.707387e-71
3.210106e-77
2.871932e-83
1.961213e-89
6.190783e-96
2.516301e-102
0.03025009
3.296645e-08
2.576136e-13
1.622359e-18
7.532804e-24
2.380209e-29
6.175093e-35
1.356943e-40
1.568919e-46
2.301787e-52
3.241084e-58
4.16917e-64
4.74071e-70
4.732815e-76
4.697992e-82
3.348411e-88
1.346031e-94
6.199223e-101
0.0305661
0
1.414097e-13
9.08752e-19
4.250037e-24
1.442953e-29
4.469675e-35
1.271302e-40
1.953636e-46
3.713278e-52
6.309872e-58
9.432499e-64
1.246887e-69
1.421869e-75
1.695412e-81
1.371807e-87
6.262613e-94
3.425465e-100
0.03200329
3.344127e-08
0
8.650022e-19
5.94849e-24
2.13214e-29
5.936906e-35
1.601817e-40
2.769068e-46
6.48608e-52
1.466395e-57
2.946275e-63
5.083445e-69
7.527063e-75
1.136377e-80
1.114948e-86
6.874398e-93
4.784407e-99
0.03401008
3.514759e-08
4.114035e-13
0
1.023347e-23
4.60727e-29
1.578319e-34
4.16853e-40
6.29058e-46
1.448167e-51
3.47928e-57
7.617588e-63
1.470013e-68
2.445906e-74
4.206053e-80
4.727372e-86
3.078663e-92
2.398712e-98
0.03620565
3.800265e-08
5.547119e-13
5.207206e-18
0
9.232926e-29
3.671573e-34
1.238873e-39
2.117671e-45
5.016253e-51
1.323367e-56
3.448278e-62
7.865051e-68
1.531936e-73
2.970869e-79
3.566689e-85
2.773099e-91
2.352972e-97
0.03837976
4.532408e-08
7.616836e-13
9.103387e-18
9.237122e-23
0
1.362497e-33
4.951129e-39
1.08122e-44
2.603788e-50
5.915296e-56
1.335848e-61
2.854871e-67
5.647957e-73
1.978513e-78
1.431968e-84
1.30258e-90
1.277617e-96
0.04052457
5.771303e-08
8.981217e-13
1.129349e-17
1.306051e-22
8.451496e-28
0
9.780741e-39
2.563541e-44
9.475633e-50
2.976195e-55
7.789882e-61
1.764749e-66
3.632495e-72
2.672789e-77
2.484487e-84
1.024244e-89
1.387887e-95
0.04272844
7.754032e-08
1.254634e-12
1.616599e-17
2.115078e-22
1.584526e-27
1.015332e-32
0
9.36508e-44
3.221366e-49
1.332153e-54
4.531403e-60
1.258208e-65
2.917421e-71
1.08066e-76
7.280489e-83
8.914196e-89
1.020448e-94
0.0450489
9.962119e-08
1.88414e-12
2.767371e-17
4.056308e-22
3.404904e-27
2.488756e-32
1.583132e-37
0
1.45428e-48
6.529178e-54
2.657491e-59
8.945186e-65
2.505539e-70
1.032137e-75
8.626218e-82
1.181417e-87
1.50561e-93
0.04747471
1.278824e-07
2.824773e-12
4.812933e-17
7.982606e-22
7.413684e-27
6.01212e-32
4.330652e-37
2.081091e-42
0
3.245063e-53
1.54394e-58
6.015645e-64
1.91351e-69
9.233393e-75
9.393763e-81
1.572117e-86
2.331897e-92
0.05007499
1.583332e-07
4.138858e-12
8.136462e-17
1.545383e-21
1.605316e-26
1.456832e-31
1.170989e-36
6.344055e-42
4.322743e-47
0
6.031522e-58
2.671704e-63
1.096533e-68
6.515105e-74
7.935649e-80
1.564148e-85
2.738862e-91
0.05274659
1.94222e-07
5.896937e-12
1.339765e-16
2.946023e-21
3.468712e-26
3.507381e-31
3.176162e-36
1.951853e-41
1.514509e-46
1.076945e-51
0
1.32865e-62
1.400162e-67
0
2.492995e-79
1.014477e-84
2.696767e-90
0.05559578
2.406656e-07
8.421889e-12
2.201247e-16
5.601494e-21
7.428205e-26
8.396839e-31
8.488844e-36
5.835651e-41
5.151163e-46
4.190814e-51
2.648282e-56
7.127612e-65
4.814312e-67
1.631136e-72
4.159922e-78
1.134192e-83
2.75152e-89
0.05861507
2.944639e-07
1.2019e-11
3.656943e-16
1.085602e-20
1.655969e-25
2.145433e-30
2.485504e-35
1.952432e-40
1.977544e-45
1.816194e-50
1.442011e-55
8.973069e-61
3.496945e-69
1.288664e-71
3.933018e-77
1.226073e-82
3.537859e-88
0.06174764
3.646274e-07
1.721262e-11
6.135021e-16
2.114648e-20
3.651614e-25
5.348104e-30
7.013624e-35
5.980547e-40
6.734353e-45
6.914561e-50
6.161803e-55
4.785979e-60
5.84799e-65
3.445151e-71
3.081312e-76
1.173489e-81
3.667928e-87
0.06512192
4.463872e-07
2.443682e-11
1.02701e-15
4.292164e-20
8.184468e-25
1.367973e-29
2.031914e-34
2.035113e-39
2.617135e-44
3.087505e-49
3.173855e-54
2.845626e-59
8.320074e-64
3.430918e-70
0
3.599189e-81
5.582348e-86
0.06864743
5.438301e-07
3.430974e-11
1.719318e-15
9.304358e-20
1.360553e-24
2.697825e-29
4.436336e-34
5.187987e-39
7.273608e-44
9.932242e-49
1.189244e-53
1.226904e-58
1.560575e-63
6.109859e-69
3.640494e-74
2.367232e-79
3.10883e-84
0.07232628
6.397886e-07
4.340808e-11
2.386618e-15
9.180528e-20
3.009042e-24
6.245274e-29
9.639407e-34
4.581928e-38
2.890983e-43
4.306203e-48
5.650659e-53
7.202347e-58
8.691391e-63
4.433568e-68
3.803622e-73
3.165301e-78
6.115137e-83
0.0762972
7.286952e-07
5.177457e-11
2.670493e-15
1.314138e-19
5.748193e-24
1.520588e-28
3.182774e-33
6.737082e-38
1.028333e-42
1.893404e-47
3.015823e-52
6.074269e-57
0
2.053183e-67
1.579524e-72
1.675611e-77
0
0.08081147
6.890183e-07
5.816969e-11
3.029361e-15
1.587893e-19
7.862584e-24
2.361105e-28
5.476521e-33
1.33794e-37
2.359562e-42
5.031202e-47
9.193852e-52
1.786651e-56
2.021211e-61
2.526525e-66
3.464215e-71
7.282315e-76
2.613926e-81
0.0945921
1.371324e-06
1.353948e-10
1.232965e-14
0
1.227015e-23
4.640615e-28
1.144031e-32
0
9.261026e-42
1.863938e-46
4.035675e-51
1.512326e-55
1.546561e-60
2.367832e-65
3.885767e-70
8.923672e-75
2.848925e-80
0.101535
1.944113e-06
2.583535e-10
3.389056e-14
2.106665e-18
9.415685e-23
3.661873e-27
0
4.455435e-36
1.106052e-40
2.820852e-45
6.576777e-50
2.974121e-54
2.021138e-59
4.523746e-64
1.319683e-68
0
9.837143e-79
0.1117249
2.057974e-06
3.368517e-10
4.976199e-14
3.744922e-18
2.323352e-22
1.06041e-26
3.195032e-31
1.29689e-35
4.084237e-40
1.249712e-44
4.381452e-49
1.509121e-53
3.485822e-58
9.132248e-63
3.30945e-67
3.117293e-72
4.364358e-77
0.2081188
3.374632e-06
5.384713e-10
1.218899e-13
9.813391e-18
6.773558e-22
3.231791e-26
1.19688e-30
5.793373e-35
2.197279e-39
8.592641e-44
4.708576e-48
7.859283e-53
3.743421e-57
1.254091e-61
5.234033e-66
4.289589e-71
8.563722e-76
0.3381577
5.897423e-06
8.713252e-10
1.980346e-13
1.806172e-17
1.262413e-21
6.768739e-26
2.398304e-30
1.422422e-34
8.486512e-39
4.814024e-43
3.364399e-47
1.0606e-51
3.696331e-56
1.498371e-60
2.678728e-65
6.307653e-70
1.268415e-74
0.444542
7.951829e-06
9.185505e-10
3.887966e-13
2.234076e-17
1.086514e-21
5.603989e-26
3.588048e-30
2.468178e-34
1.451979e-38
8.025472e-43
7.029628e-47
2.439698e-52
1.050385e-56
4.901771e-61
9.96317e-66
3.876861e-70
9.111552e-75
0.5053596
0.0005487029
3.462655e-08
3.799094e-12
2.105313e-16
1.840997e-20
1.28628e-24
8.102765e-29
4.876859e-33
2.520632e-37
1.302877e-41
5.87255e-46
1.934204e-50
8.221375e-55
0
1.133793e-64
1.614874e-69
3.709227e-74
0.5224417
0.0001978496
7.440799e-08
1.626953e-11
1.672624e-15
1.628892e-19
1.191943e-23
8.770897e-28
7.34316e-32
5.813358e-36
4.722347e-40
2.062053e-44
9.165939e-49
3.504497e-53
0
3.20801e-64
2.745442e-69
1.081681e-73
0.5320783
0
2.485089e-09
6.640573e-13
1.192433e-16
1.980105e-20
3.950822e-24
7.508454e-28
1.423929e-31
2.170458e-35
2.918331e-39
2.03922e-43
1.42555e-47
5.659539e-52
2.521777e-56
6.315123e-61
0
8.735688e-71
0.5427624
0.0002870489
2.322641e-08
3.884536e-12
1.393131e-15
6.482526e-19
3.470097e-22
1.473996e-25
5.393789e-29
1.480989e-32
2.480254e-36
4.209626e-40
4.960816e-44
3.087074e-48
1.884638e-52
1.053865e-56
0
1.26506e-65
0.5520343
0.001218811
5.038641e-09
5.739295e-12
6.256245e-15
5.867616e-18
5.388844e-21
3.998773e-24
2.729249e-27
1.044362e-30
9.802404e-35
2.875751e-38
4.305622e-42
7.345117e-46
1.23894e-49
0
1.623973e-58
8.998874e-63
0.5569248
0.003227503
1.161195e-07
5.008397e-11
7.228854e-14
1.141064e-16
1.642055e-19
1.80634e-22
1.613043e-25
1.495171e-28
7.533367e-32
3.834742e-35
9.447458e-39
2.235489e-42
3.589386e-46
3.701443e-50
1.895823e-54
4.820283e-60
0.5537858
0.006717341
1.676977e-06
3.674021e-09
7.768196e-12
1.647301e-14
2.394955e-17
3.038387e-20
3.111153e-23
2.828623e-26
1.740597e-29
5.312138e-33
1.8674e-36
5.261657e-40
2.596347e-44
0
2.050847e-53
1.763249e-57
0.5543911
0.04325316
4.045637e-05
6.513858e-08
1.911103e-10
5.949627e-13
1.196013e-15
2.049465e-18
2.825204e-21
2.813178e-24
1.422015e-27
4.521071e-31
1.94834e-34
1.660626e-38
2.304133e-43
7.775245e-47
0
1.368272e-55
0.557861
0.1011248
0.0004299963
1.847961e-06
9.90385e-09
4.84961e-11
1.157986e-13
2.259685e-16
3.520596e-19
3.372863e-22
2.397002e-25
1.610789e-28
4.522925e-32
3.040838e-36
6.54722e-40
0
5.817042e-49
0
0.5566207
0.1994146
0.002018928
4.236765e-05
0
3.553293e-23
9.334819e-26
7.245047e-29
3.372025e-32
1.772771e-35
8.89687e-40
1.4431e-43
4.2484e-49
5.641902e-53
0.5562026
0.5547842
0
0
6.782451e-33
1.592367e-36
7.459383e-41
1.513761e-44
3.705038e-49
1.299476e-53
0.5636894
0
1.393846e-34
2.477972e-36
0
1.297944e-45
5.17161e-50
4.248634e-54
4.96808e-33
3.007995e-36
3.4951e-42
1.953426e-45
0
4.137935e-55
4.443255e-37
4.180587e-41
1.738498e-45
5.557208e-49
1.633032e-53
2.334314e-40
1.982675e-42
6.109293e-46
1.425938e-50
7.604432e-55
1.020531e-40
2.540859e-44
3.253804e-48
2.894577e-52
2.006782e-56
6.013034e-43
1.696904e-46
1.083762e-50
4.926633e-55
3.392424e-59
3.031833e-45
6.134289e-49
0
9.941378e-58
4.046573e-62
3.71293e-47
3.871544e-51
2.755027e-58
0
5.451604e-65
3.513651e-41
5.245751e-48
6.71129e-53
1.448395e-59
0
1.260691e-67
0.5632619
2.168084e-37
1.327845e-42
9.138477e-53
7.189909e-60
0
1.6354e-70
0.5594621
0.5544225
1.333571e-32
0
1.517679e-45
1.384309e-50
0
0
1.506659e-71
0.5652987
0.29148
0.003094567
0
3.205678e-29
1.818286e-34
7.450356e-39
0
9.347571e-50
0
1.175646e-61
5.974683e-67
0.5543462
0.1279693
0.000850888
5.74411e-06
7.586969e-08
2.191397e-10
3.112835e-13
2.718543e-16
9.803633e-20
2.95691e-23
5.483574e-27
2.148407e-31
3.530456e-36
0
1.17427e-49
6.618406e-55
1.353682e-60
0
0.5548378
0.0772238
0.0001618753
3.697447e-07
7.324959e-10
1.701993e-12
2.185444e-15
1.803717e-18
9.240174e-22
2.520915e-25
4.908608e-29
2.262515e-33
8.427568e-39
6.033423e-43
0
6.306417e-55
0
4.88748e-67
0.5505978
0.02186333
1.577243e-05
1.146283e-08
1.477189e-11
1.94403e-14
1.695197e-17
1.139821e-20
5.044446e-24
1.246297e-27
2.43434e-31
2.526683e-35
7.12471e-40
0
3.183212e-50
0
4.686591e-62
0
0.5511323
0.005922888
5.077835e-07
4.275405e-10
4.849759e-13
3.826844e-16
2.391692e-19
1.11855e-22
3.655022e-26
1.09055e-29
1.327365e-33
1.802581e-37
5.346358e-42
2.116853e-46
0
2.807201e-57
2.3457e-63
1.057538e-69
0.5492608
0.003146624
2.016856e-08
2.423476e-12
4.000171e-15
3.199839e-18
1.84523e-21
7.090932e-25
1.892801e-28
4.346291e-32
5.427337e-36
5.848772e-40
0
5.108345e-49
5.687024e-54
1.518497e-59
8.581866e-66
1.697264e-72
0.5503876
0.001468687
7.032377e-08
3.643283e-12
3.135832e-16
4.262512e-20
1.183954e-23
3.312005e-27
7.817525e-31
1.288576e-34
1.176503e-38
1.158213e-42
9.036949e-47
1.389438e-51
7.198334e-57
1.804081e-63
0
3.850847e-76
0.5428038
0.0006247811
0
7.00707e-14
5.434812e-18
4.719368e-22
6.92922e-26
1.125078e-29
1.731422e-33
2.128717e-37
2.872765e-41
1.472487e-45
7.100995e-50
0
1.564682e-60
2.788984e-67
2.595242e-73
2.368106e-79
0.529984
0.0002213742
5.582865e-10
4.547459e-15
3.624396e-20
1.552004e-24
1.692057e-28