/*--------------------------------*- C++ -*----------------------------------*\
| =========                 |                                                 |
| \\      /  F ield         | OpenFOAM: The Open Source CFD Toolbox           |
|  \\    /   O peration     | Version:  2206                                  |
|   \\  /    A nd           | Website:  www.openfoam.com                      |
|    \\/     M anipulation  |                                                 |
\*---------------------------------------------------------------------------*/
FoamFile
{
    version     2.0;
    format      ascii;
    arch        "LSB;label=32;scalar=64";
    class       volVectorField;
    location    "1.4";
    object      ddt0(U.b);
}
// * * * * * * * * * * * * * * * * * * * * * * * * * * * * * * * * * * * * * //

dimensions      [0 1 -2 0 0 0 0];

internalField   nonuniform List<vector> 
13078
(
(-4.754654e-05 0.0001270511 -1.059889e-26)
(-2.51551e-05 1.99469e-05 1.199241e-29)
(-2.349137e-05 6.239506e-05 2.34235e-27)
(-2.437593e-05 4.24916e-05 0)
(-2.486854e-05 3.551413e-05 -1.367578e-27)
(-2.526859e-05 3.519793e-05 -2.136685e-27)
(-2.544561e-05 3.650688e-05 -2.844071e-27)
(-4.945663e-05 -1.797103e-05 0)
(-4.350324e-07 3.640267e-05 -5.645461e-29)
(-1.711255e-05 4.170137e-05 0)
(-2.490073e-05 3.518024e-05 0)
(-2.741118e-05 3.372961e-05 -6.274388e-30)
(-2.877436e-05 3.46139e-05 -1.932483e-30)
(-2.93151e-05 3.644097e-05 -2.548398e-30)
(1.839895e-05 2.420229e-06 5.631728e-27)
(-6.223835e-06 1.972227e-05 -3.803645e-27)
(-2.199539e-05 2.540591e-05 1.775009e-28)
(-2.842494e-05 2.903968e-05 1.697228e-27)
(-3.152694e-05 3.128785e-05 1.561303e-27)
(-3.310091e-05 3.376539e-05 0)
(-3.396984e-05 3.62857e-05 -1.638648e-32)
(-1.08968e-05 5.53917e-06 4.331281e-27)
(-2.31556e-05 1.50866e-05 -7.311413e-27)
(-3.017158e-05 2.16779e-05 -6.031063e-27)
(-3.446919e-05 2.620015e-05 -2.474242e-27)
(-3.689145e-05 3.003404e-05 7.33669e-29)
(-3.821641e-05 3.337033e-05 0)
(-3.883488e-05 3.664794e-05 3.234235e-29)
(-2.798059e-05 5.498274e-06 -2.098167e-30)
(-3.351617e-05 1.468267e-05 -4.096969e-27)
(-3.792629e-05 2.080795e-05 -7.473502e-27)
(-4.079191e-05 2.567356e-05 -6.92306e-27)
(-4.25246e-05 2.979545e-05 1.175518e-27)
(-4.337703e-05 3.380633e-05 -1.64271e-31)
(-4.352263e-05 3.741701e-05 2.830543e-27)
(-3.772428e-05 5.010864e-06 0)
(-4.147318e-05 1.390026e-05 2.616183e-29)
(-4.466265e-05 2.044015e-05 -5.17434e-29)
(-4.680287e-05 2.575747e-05 -4.286029e-27)
(-4.797487e-05 3.04797e-05 2.328937e-28)
(-4.839695e-05 3.479955e-05 -2.351885e-27)
(-4.833048e-05 3.892337e-05 -6.015852e-27)
(-4.647541e-05 4.584795e-06 0)
(-4.895011e-05 1.323292e-05 -5.575269e-27)
(-5.11799e-05 2.027451e-05 -6.261946e-27)
(-5.280336e-05 2.618211e-05 -1.351731e-27)
(-5.347242e-05 3.14119e-05 -4.80398e-27)
(-5.364592e-05 3.615395e-05 3.064059e-28)
(-5.331605e-05 4.048404e-05 0)
(-5.490349e-05 4.343125e-06 1.307135e-26)
(-5.655507e-05 1.287474e-05 -6.435454e-27)
(-5.805221e-05 2.03257e-05 -6.301911e-27)
(-5.905498e-05 2.686811e-05 0)
(-5.933362e-05 3.26087e-05 -1.20241e-26)
(-5.906771e-05 3.772896e-05 3.128621e-28)
(-5.848914e-05 4.2438e-05 3.835665e-28)
(-6.337957e-05 4.284122e-06 1.171048e-30)
(-6.449898e-05 1.292415e-05 1.462403e-26)
(-6.535092e-05 2.075639e-05 7.349222e-27)
(-6.577663e-05 2.78508e-05 1.862163e-28)
(-6.542748e-05 3.420099e-05 -2.780747e-26)
(-6.467527e-05 3.969206e-05 3.179842e-28)
(-6.379436e-05 4.457223e-05 0)
(-7.220829e-05 4.379095e-06 -1.650076e-26)
(-7.290388e-05 1.333216e-05 1.641571e-26)
(-7.321235e-05 2.164755e-05 8.139949e-27)
(-7.286364e-05 2.942584e-05 -1.6096e-26)
(-7.175698e-05 3.634624e-05 -7.08622e-30)
(-7.0655e-05 4.199761e-05 0)
(-6.910982e-05 4.703563e-05 0)
(-8.165701e-05 4.675255e-06 0)
(-8.203412e-05 1.416495e-05 0)
(-8.17145e-05 2.317298e-05 1.812607e-26)
(-8.047319e-05 3.174286e-05 -1.807954e-26)
(-7.875966e-05 3.891854e-05 7.472331e-30)
(-7.658433e-05 4.493693e-05 0)
(-7.423487e-05 5.028082e-05 0)
(-9.206651e-05 5.082757e-06 0)
(-9.214316e-05 1.54716e-05 -1.987377e-26)
(-9.111066e-05 2.548821e-05 1.995178e-26)
(-8.906472e-05 3.469689e-05 1.979499e-26)
(-8.620616e-05 4.266988e-05 -2.04036e-26)
(-8.284644e-05 4.914119e-05 0)
(-7.921363e-05 5.408239e-05 2.123718e-26)
(-0.0001036589 5.711791e-06 0)
(-0.0001035052 1.735661e-05 -2.157866e-26)
(-0.0001017691 2.850731e-05 -1.223549e-28)
(-9.856043e-05 3.891752e-05 2.187036e-26)
(-9.451706e-05 4.756946e-05 -2.219632e-26)
(-8.959883e-05 5.459065e-05 2.255336e-26)
(-8.375762e-05 6.024756e-05 1.098641e-29)
(-0.0001167739 6.40407e-06 -2.294236e-26)
(-0.0001163673 1.967901e-05 0)
(-0.000113822 3.273178e-05 -1.115769e-28)
(-0.0001095629 4.42254e-05 -1.660687e-28)
(-0.0001040205 5.407376e-05 -4.837923e-26)
(-9.665234e-05 6.270318e-05 2.486012e-26)
(-8.837104e-05 6.877726e-05 -2.55897e-26)
(-0.0001321114 7.351632e-06 -2.421718e-26)
(-0.0001309547 2.276233e-05 0)
(-0.0001275758 3.769497e-05 -1.96338e-28)
(-0.0001225948 5.115755e-05 2.712128e-26)
(-0.0001148646 6.288988e-05 -2.315918e-26)
(-0.0001050714 7.31481e-05 0)
(-9.410391e-05 8.034055e-05 2.813812e-26)
(-0.0001497841 8.880138e-06 0)
(-0.0001481482 2.682134e-05 -2.560912e-26)
(-0.0001441597 4.349058e-05 0)
(-0.0001373991 5.942045e-05 2.710466e-26)
(-0.0001276646 7.417637e-05 3.433194e-28)
(-0.0001155464 8.620834e-05 4.663708e-28)
(-0.0001015595 9.530311e-05 3.118168e-26)
(-0.0001702438 1.038561e-05 0)
(-0.0001685311 3.113198e-05 -5.294014e-26)
(-0.0001634926 5.110697e-05 -6.088335e-29)
(-0.0001547181 7.013628e-05 -9.334661e-29)
(-0.0001431798 8.729014e-05 0)
(-0.0001285371 0.0001019703 0)
(-0.0001114878 0.0001137687 0)
(-0.0001943567 1.204932e-05 -2.65957e-26)
(-0.0001922587 3.648376e-05 -2.703397e-26)
(-0.0001857919 6.022372e-05 -6.709501e-29)
(-0.0001757029 8.248328e-05 -5.623101e-29)
(-0.0001619297 0.0001027666 0)
(-0.0001445141 0.000120631 -3.276491e-26)
(-0.0001244518 0.0001354223 -7.458143e-28)
(-0.0002226698 1.401112e-05 -2.665337e-26)
(-0.00021994 4.277608e-05 -2.719419e-26)
(-0.0002123081 7.074152e-05 -2.430378e-30)
(-0.0002004891 9.681965e-05 -2.42346e-29)
(-0.0001841837 0.0001208497 0)
(-0.0001639783 0.0001421611 -3.378884e-26)
(-0.000140648 0.0001602503 -2.244387e-28)
(-0.0002561625 1.636677e-05 -2.617617e-26)
(-0.0002522503 5.006615e-05 -5.381331e-26)
(-0.0002434574 8.290618e-05 -2.814886e-26)
(-0.0002296306 0.0001135543 0)
(-0.0002105945 0.0001421416 -1.002336e-27)
(-0.0001876925 0.0001665828 -7.116865e-28)
(-0.0001602788 0.0001884435 9.956454e-29)
(-0.0002953144 1.956556e-05 -2.510165e-26)
(-0.0002901733 5.884102e-05 -5.212034e-26)
(-0.0002798982 9.6748e-05 -5.513576e-26)
(-0.0002638576 0.0001325611 -2.978913e-26)
(-0.0002422797 0.0001655856 -2.18744e-28)
(-0.0002153208 0.0001951695 -3.534504e-26)
(-0.00018357 0.0002206467 3.893715e-26)
(-0.000340634 2.318141e-05 0)
(-0.0003347127 6.893047e-05 -2.457831e-26)
(-0.0003225681 0.0001127764 -2.640321e-26)
(-0.0003038689 0.0001546095 -5.74331e-26)
(-0.000278924 0.0001931511 0)
(-0.0002476309 0.0002277811 -3.560161e-26)
(-0.0002109148 0.000257505 -4.883658e-30)
(-0.0003934044 2.714413e-05 2.084209e-26)
(-0.0003866005 8.038469e-05 0)
(-0.0003723582 0.0001312695 0)
(-0.0003506174 0.0001799706 -5.147719e-28)
(-0.0003216998 0.0002248675 3.020105e-26)
(-0.0002853517 0.0002651972 0)
(-0.0002430974 0.000299769 -4.014287e-26)
(-0.0004548396 3.15776e-05 3.464519e-26)
(-0.0004468755 9.341323e-05 0)
(-0.0004302954 0.0001524904 0)
(-0.0004051314 0.0002091063 2.555766e-26)
(-0.0003717887 0.0002615563 5.911098e-26)
(-0.0003298302 0.0003093923 -3.427972e-26)
(-0.0002818146 0.0003479449 0)
(-0.0005261476 3.657816e-05 1.265973e-26)
(-0.0005167854 0.0001082265 -2.278171e-28)
(-0.0004975577 0.000176721 1.714167e-26)
(-0.0004685115 0.0002423204 -9.675046e-28)
(-0.0004302221 0.0003029623 -1.185754e-27)
(-0.000382994 0.0003575915 -3.259373e-26)
(-0.0003266451 0.0004047909 0)
(-0.0006086462 4.220991e-05 0)
(-0.0005977225 0.0001250294 -8.868476e-27)
(-0.0005754792 0.000204338 1.237506e-26)
(-0.0005420383 0.0002802806 0)
(-0.0004980486 0.0003506596 -2.609405e-26)
(-0.0004440198 0.0004141987 -6.847715e-27)
(-0.00037911 0.0004697076 -3.658733e-27)
(-0.0007037223 4.847418e-05 8.546214e-28)
(-0.0006912921 0.0001439784 -1.693829e-27)
(-0.0006655478 0.0002357038 5.881696e-27)
(-0.0006271779 0.000323397 0)
(-0.0005768462 0.0004048276 3.842262e-27)
(-0.0005150921 0.000478561 -3.220469e-30)
(-0.0004408431 0.0005434888 -4.740691e-27)
(-0.0008129219 5.521028e-05 1.016918e-26)
(-0.0007992708 0.0001650934 7.193491e-27)
(-0.0007693437 0.0002712859 -2.319814e-27)
(-0.0007254554 0.000372209 0)
(-0.0006680904 0.0004661741 0)
(-0.000598019 0.000551916 -2.18725e-26)
(-0.0005143927 0.0006294854 8.276527e-26)
(-0.0009385075 6.218456e-05 2.175607e-26)
(-0.0009226475 0.0001885245 1.863276e-26)
(-0.00088893 0.0003116335 0)
(-0.0008385302 0.0004272494 1.05397e-28)
(-0.0007731776 0.000535115 5.899687e-27)
(-0.000693542 0.0006328739 -3.824854e-26)
(-0.0006001639 0.0007182042 -2.245151e-26)
(-0.001082678 7.109878e-05 3.545277e-26)
(-0.001063737 0.0002138071 0)
(-0.001025489 0.0003561988 2.671108e-26)
(-0.0009690215 0.0004896454 -1.296699e-26)
(-0.0008940822 0.0006133573 4.79961e-27)
(-0.0008032529 0.0007264145 -1.598981e-26)
(-0.0006965859 0.0008262107 -2.271251e-26)
(-0.001248288 8.124308e-05 0)
(-0.001224062 0.0002444324 0)
(-0.001181042 0.0004047422 7.855328e-26)
(-0.001117917 0.0005589683 0)
(-0.001033905 0.0007020293 3.330527e-26)
(-0.0009302449 0.0008318976 1.777161e-27)
(-0.0008097752 0.0009483119 1.530282e-26)
(-0.00143397 9.35225e-05 7.236963e-26)
(-0.001407134 0.0002799829 -6.407462e-26)
(-0.001360984 0.000457374 -5.551373e-26)
(-0.001288103 0.000634258 0)
(-0.001193246 0.0008004801 3.099933e-26)
(-0.001077093 0.0009506053 0)
(-0.000939816 0.001082297 3.287428e-26)
(-0.001643523 0.0001040633 9.469452e-26)
(-0.001617899 0.0003134702 -8.861086e-26)
(-0.001561968 0.0005216202 -2.326924e-25)
(-0.00148635 0.000716557 -1.356601e-25)
(-0.001375111 0.0009088464 3.547699e-26)
(-0.001244403 0.001083853 -1.446186e-26)
(-0.001088994 0.001237278 1.6227e-26)
(-0.001880303 0.0001156108 -4.108027e-28)
(-0.001852288 0.0003517409 -1.263114e-27)
(-0.001795247 0.0005844537 -1.120605e-25)
(-0.001706864 0.0008103418 -1.599333e-25)
(-0.001585146 0.001030122 9.769668e-26)
(-0.001436254 0.001232773 -3.427194e-26)
(-0.001259201 0.001413126 -7.753278e-26)
(-0.002143791 0.0001287094 4.706477e-28)
(-0.00211375 0.0003920298 1.451162e-27)
(-0.002056308 0.0006566452 -1.23348e-25)
(-0.001957969 0.0009189638 3.410001e-28)
(-0.001830061 0.001157548 1.6393e-25)
(-0.001658966 0.001398261 -2.67574e-26)
(-0.001455012 0.001611996 0)
(-0.002434402 0.0001421031 0)
(-0.002404139 0.0004335701 0)
(-0.00234551 0.0007284188 -1.663214e-25)
(-0.002249212 0.001022144 -1.790045e-25)
(-0.002105645 0.001316538 -3.144597e-25)
(-0.00192649 0.001577043 -2.770559e-25)
(-0.001685665 0.001832936 0)
(-0.002754368 0.0001558233 1.19368e-27)
(-0.002723976 0.0004765473 -3.639321e-27)
(-0.002668968 0.0008035425 -1.243067e-26)
(-0.002575552 0.001133172 0)
(-0.002434192 0.001463449 -3.236532e-25)
(-0.002236034 0.001785086 5.436684e-26)
(-0.001967763 0.002083111 1.267492e-25)
(-0.003097186 0.0001699728 2.677374e-25)
(-0.003074097 0.0005172979 -4.106258e-27)
(-0.003025291 0.000876135 2.463985e-25)
(-0.002936347 0.001246693 0)
(-0.002797771 0.001627074 -2.544327e-25)
(-0.002589221 0.002017456 2.475698e-25)
(-0.002312116 0.002361027 7.152715e-25)
(-0.003462116 0.0001779321 3.142646e-25)
(-0.003450582 0.0005498033 3.015093e-25)
(-0.003413035 0.0009444863 2.936838e-25)
(-0.003335784 0.001356248 4.301536e-26)
(-0.003206492 0.001784731 1.130756e-25)
(-0.003006584 0.00223184 -6.047149e-27)
(-0.002712201 0.002680759 3.383764e-25)
(-0.003841217 0.0001873753 0)
(-0.003844605 0.0005721347 -3.437551e-25)
(-0.003829504 0.0009958068 -3.436244e-25)
(-0.003775865 0.001450306 -2.340219e-26)
(-0.00367386 0.001934725 3.681604e-25)
(-0.003503295 0.002454599 7.854483e-26)
(-0.00322122 0.003033474 0)
(-0.004223766 0.0001897866 -4.159941e-25)
(-0.004243897 0.0005891218 -7.761954e-25)
(-0.004263338 0.001014977 -3.35175e-25)
(-0.004246734 0.001504197 -7.676996e-25)
(-0.004187172 0.002034704 4.339837e-25)
(-0.004080229 0.002621399 -2.588559e-25)
(-0.003852574 0.003303927 -2.76663e-24)
(-0.004610111 0.0001849475 -4.662266e-25)
(-0.004656087 0.0005776821 4.906533e-27)
(-0.004697391 0.001016801 0)
(-0.004739257 0.00149567 -1.871557e-26)
(-0.004726421 0.002062833 -8.591783e-25)
(-0.004688692 0.002732809 -3.306483e-23)
(-0.00450178 0.003579707 3.196554e-24)
(-0.004983035 0.0001692543 5.183109e-25)
(-0.005052762 0.0005333547 -9.11084e-27)
(-0.005144881 0.0009517018 -1.634282e-26)
(-0.005231008 0.001459898 1.166406e-24)
(-0.005319537 0.002018511 4.975614e-24)
(-0.00523354 0.002798132 -2.020794e-23)
(-0.004891478 0.003952305 -3.206219e-23)
(-0.005279729 0.0001427901 5.618643e-25)
(-0.005381184 0.0004531134 0)
(-0.005524092 0.0008266946 -2.92762e-26)
(-0.005698702 0.001310404 2.013149e-23)
(-0.00577314 0.002037746 -8.487376e-24)
(-0.005575371 0.003078827 -4.61847e-23)
(-0.004196986 0.005333874 -6.393013e-23)
(-0.005482722 0.000111095 0)
(-0.005621149 0.0003553504 -1.382481e-26)
(-0.005808417 0.000666982 -9.22642e-24)
(-0.005969716 0.001189534 3.993232e-23)
(-0.005902839 0.002132297 -2.391989e-23)
(-0.004732294 0.004526826 -1.222439e-22)
(-0.002379524 0.00654675 -9.495651e-24)
(-0.005589547 7.427646e-05 0)
(-0.005774478 0.0002548837 -7.405296e-24)
(-0.005996497 0.0005730801 -1.440785e-23)
(-0.006029548 0.00124965 5.898309e-23)
(-0.005205709 0.003374278 -1.228684e-23)
(-0.002900202 0.006153258 -6.704798e-23)
(-0.0005039019 0.007981932 1.539782e-22)
(-0.005576645 2.063878e-05 6.226296e-25)
(-0.005815879 0.000128953 1.407421e-23)
(-0.00598146 0.0005575464 1.917209e-23)
(-0.005541133 0.002214589 2.556754e-23)
(-0.00345737 0.005345818 -5.975443e-23)
(-0.0009524245 0.007699245 -5.676808e-23)
(0.000707709 0.01003214 -4.807457e-23)
(-0.005408152 -4.62276e-05 -1.369003e-23)
(-0.00564911 8.061347e-05 2.674338e-23)
(-0.005545882 0.00106513 1.1502e-23)
(-0.004136962 0.004221885 -3.286763e-23)
(-0.001819171 0.007087978 -2.652127e-23)
(0.0003099752 0.009833278 -8.130023e-23)
(0.00070396 0.0112177 1.082683e-22)
(-0.00509535 -5.692197e-05 -2.915784e-23)
(-0.005186566 0.0003053622 4.196857e-23)
(-0.004579361 0.002539668 -2.679247e-23)
(-0.002572371 0.006031806 -3.683123e-23)
(-0.000413832 0.008940432 2.226434e-23)
(0.0005144775 0.01132578 8.215745e-23)
(0.0007393787 0.01208704 -4.909797e-23)
(-0.004592238 5.111109e-05 -2.172104e-23)
(-0.00448262 0.001066598 1.084212e-23)
(-0.003314294 0.004370762 -1.80391e-23)
(-0.001389137 0.007627679 -7.1752e-24)
(0.0001205717 0.01083817 -4.570231e-23)
(0.0005667779 0.01242628 -5.014561e-23)
(0.001152463 0.0133766 -2.479523e-23)
(-0.003941806 0.0003359688 -2.112369e-23)
(-0.003597085 0.002309429 -1.680762e-23)
(-0.002181268 0.00589806 -2.417224e-23)
(-0.0006022749 0.009329581 -4.608699e-24)
(0.0002519582 0.01231988 4.176811e-23)
(0.0007152825 0.01361874 8.32335e-23)
(0.001588603 0.0149972 4.077762e-23)
(-0.003191286 0.0007280422 -2.863871e-23)
(-0.002662115 0.003707147 3.517006e-24)
(-0.001466541 0.00746499 -7.178358e-23)
(-0.0003296454 0.01108504 -4.041637e-23)
(0.0001814246 0.01364056 7.955833e-23)
(0.0007138947 0.01510078 1.728838e-22)
(0.001689304 0.01684857 2.488716e-23)
(-0.002472373 0.001216255 -1.164822e-23)
(-0.001878 0.004777866 1.34314e-24)
(-0.0009839862 0.008569746 2.026406e-23)
(-0.0003444701 0.01236862 2.009253e-23)
(-7.817382e-06 0.01469079 -7.323624e-23)
(0.0004940616 0.01643338 -6.597339e-23)
(0.001301448 0.01866329 -1.283396e-22)
(-0.001809728 0.001660103 6.88333e-25)
(-0.001311257 0.005597508 -5.471993e-25)
(-0.0007308566 0.00947207 -1.650499e-23)
(-0.000402317 0.01327933 -2.150066e-23)
(-0.0001984257 0.01553492 -1.384511e-23)
(0.000216395 0.01752378 1.10045e-23)
(0.0009099031 0.02015345 -1.757121e-23)
(-0.001225697 0.001989892 2.465508e-24)
(-0.0009281604 0.006127272 4.272446e-24)
(-0.0006378057 0.01012042 -1.415679e-23)
(-0.0005089245 0.01388366 -2.522451e-23)
(-0.0003939493 0.01615608 -5.75361e-24)
(-6.555211e-05 0.0184277 4.423708e-23)
(0.0005388959 0.02156885 8.05349e-23)
(-0.0006622322 0.002192233 4.223906e-24)
(-0.0006276128 0.00642959 6.302336e-24)
(-0.0006626008 0.01043568 8.530657e-24)
(-0.000677293 0.01416886 6.415914e-24)
(-0.0006204965 0.0165048 1.348112e-23)
(-0.0004541851 0.01900373 9.511594e-23)
(-0.0001755253 0.02248117 1.852341e-22)
(-7.295547e-05 0.002176976 -6.934181e-25)
(-0.000354637 0.006385159 -1.599303e-24)
(-0.0007071824 0.01036596 1.073598e-23)
(-0.0008277075 0.01411313 1.95782e-23)
(-0.0008186421 0.01648549 6.60604e-23)
(-0.0008503941 0.01900342 1.594849e-22)
(-0.0009924949 0.02236655 1.633301e-22)
(0.0005337692 0.001942906 6.812572e-24)
(-7.596225e-06 0.006025857 -1.385645e-23)
(-0.0006627492 0.009947515 5.494292e-24)
(-0.0009356544 0.0137384 3.087941e-24)
(-0.0009814802 0.0161147 5.500017e-25)
(-0.001146741 0.01847925 -2.625717e-23)
(-0.001514295 0.02158912 -8.265306e-23)
(0.001187033 0.00156352 4.616766e-25)
(0.0005023111 0.005418724 -1.024681e-23)
(-0.0004647654 0.009222994 1.246391e-23)
(-0.000995916 0.0130444 1.113305e-23)
(-0.001130854 0.01547882 3.000013e-24)
(-0.00139551 0.01768359 6.3171e-23)
(-0.00190082 0.0204436 -3.417832e-23)
(0.001931622 0.001098463 -3.333811e-23)
(0.001235684 0.004502059 -4.145689e-24)
(-2.735969e-05 0.008198916 -3.363887e-23)
(-0.0009433471 0.01202835 9.380485e-25)
(-0.001230548 0.01459165 1.362629e-23)
(-0.001574791 0.01657269 3.116209e-23)
(-0.002242847 0.01899409 4.977006e-23)
(0.002797013 0.0005933799 -1.383152e-23)
(0.002235279 0.003305522 2.108465e-23)
(0.000733431 0.007039281 -1.281686e-22)
(-0.0007337337 0.01062258 -1.509925e-22)
(-0.001247758 0.01351227 -7.979586e-23)
(-0.001582974 0.01525139 -1.29303e-22)
(-0.00233457 0.01718312 4.819002e-23)
(0.00366105 0.0001831185 -3.383122e-23)
(0.003322753 0.001983687 -3.895428e-24)
(0.001760398 0.005424068 -5.888515e-23)
(-0.0001645439 0.008825105 -4.857752e-23)
(-0.001207449 0.01210257 -2.656836e-23)
(-0.001489161 0.01382153 -3.475272e-23)
(-0.002037538 0.0155234 -1.948199e-23)
(0.004355145 -1.913334e-05 -5.101151e-24)
(0.004307352 0.0007400185 4.167297e-23)
(0.003218519 0.003772782 -1.969007e-23)
(0.0009905109 0.007111055 -4.691173e-24)
(-0.000892978 0.0104231 2.146418e-23)
(-0.001349669 0.01264476 5.299635e-23)
(-0.001659505 0.01411372 2.663691e-23)
(0.004922294 -8.532822e-05 2.339635e-23)
(0.005048322 0.0001407613 2.534635e-23)
(0.004574284 0.002041049 -2.76661e-23)
(0.002598912 0.005490495 -3.33983e-23)
(0.0001346755 0.008439045 -3.663506e-23)
(-0.001171457 0.0113426 -1.759197e-22)
(-0.001361731 0.01284876 -4.693973e-22)
(0.005314643 -6.424955e-05 -1.230437e-24)
(0.005533984 -1.018875e-05 2.356795e-24)
(0.005494587 0.0007606699 1.815941e-23)
(0.004376509 0.003528159 1.498854e-23)
(0.002029684 0.006715279 5.110873e-23)
(-0.0003491048 0.009502968 -1.922174e-22)
(-0.001246559 0.01173081 -3.934809e-22)
(0.005550005 -1.169708e-05 6.24991e-25)
(0.005786566 2.461346e-05 3.557885e-23)
(0.005947349 0.0004179468 2.022345e-23)
(0.005636869 0.00174864 3.876115e-23)
(0.00391146 0.004880152 -5.364293e-23)
(0.001482833 0.007454901 -4.59554e-23)
(-0.0006327728 0.0100163 -2.234365e-22)
(0.005636313 3.555161e-05 0)
(0.005828822 0.0001413047 3.191342e-23)
(0.006068406 0.0003857015 -1.783782e-23)
(0.006140572 0.001133673 6.223122e-23)
(0.005607599 0.002934624 -1.561622e-23)
(0.003537949 0.005981115 -5.506354e-25)
(0.001259575 0.008033136 -1.615372e-22)
(0.0055871 8.669826e-05 0)
(0.005734839 0.0002914104 1.218754e-26)
(0.005954478 0.0005803508 -2.336906e-24)
(0.006182795 0.001093737 2.545455e-23)
(0.006081994 0.002078491 -1.904736e-23)
(0.005253052 0.004093944 -2.965347e-24)
(0.003118363 0.006800554 -1.280142e-22)
(0.005386529 0.0001309292 5.720537e-25)
(0.005506801 0.0004136511 0)
(0.005671522 0.0007610434 0)
(0.005863505 0.001203132 -9.451189e-24)
(0.005938576 0.00192193 -4.453499e-23)
(0.00572579 0.003078738 4.384469e-23)
(0.004737191 0.005143832 -1.628196e-22)
(0.005128212 0.0001551906 5.324325e-25)
(0.005208692 0.0004951008 8.650274e-27)
(0.005314939 0.0008912846 1.55933e-26)
(0.005423366 0.001353607 1.678539e-25)
(0.005544616 0.001911332 -8.292317e-24)
(0.005481483 0.002763422 4.103444e-23)
(0.005062677 0.003959352 -7.400877e-23)
(0.004787885 0.0001740203 0)
(0.004840926 0.0005412349 -4.792362e-25)
(0.00490147 0.0009593127 0)
(0.004961956 0.001429641 4.680038e-26)
(0.004997198 0.001991577 6.506412e-26)
(0.004965574 0.002642177 1.67959e-23)
(0.004745603 0.003503685 -5.835502e-23)
(0.004419748 0.0001817236 0)
(0.00444824 0.0005684127 4.237622e-25)
(0.004482854 0.0009841795 -4.198162e-25)
(0.004489168 0.001460706 0)
(0.004450466 0.001988122 1.257639e-25)
(0.004359419 0.002562097 -4.406866e-26)
(0.004166658 0.003234108 1.444874e-23)
(0.004052864 0.0001832866 0)
(0.004062196 0.0005614671 1.129163e-24)
(0.004055497 0.0009789233 7.712798e-28)
(0.004016564 0.001428907 7.891304e-25)
(0.003936519 0.001898541 1.197333e-25)
(0.003787427 0.002421116 -3.024205e-25)
(0.003526886 0.002999876 7.150231e-25)
(0.003679178 0.0001772416 -3.368237e-25)
(0.003669487 0.0005464434 3.361122e-25)
(0.003640102 0.00093767 -2.291518e-28)
(0.003574896 0.001351097 5.713487e-25)
(0.003462997 0.001783289 0)
(0.003290568 0.002227363 0)
(0.003031609 0.00268876 1.958162e-25)
(0.003309181 0.0001692321 -2.883612e-25)
(0.003291642 0.00051901 2.850793e-25)
(0.003247325 0.0008835907 -2.680531e-25)
(0.003170076 0.001256541 -2.509587e-25)
(0.003040175 0.001647855 0)
(0.002850726 0.002050296 0)
(0.002613043 0.002417305 2.694559e-25)
(0.002956983 0.0001612234 2.459305e-25)
(0.002932187 0.0004874915 2.515627e-25)
(0.002882635 0.0008165439 1.230648e-26)
(0.002795224 0.001158092 -1.896211e-25)
(0.002659926 0.001506431 -1.311848e-25)
(0.002480286 0.001838545 1.325621e-25)
(0.002237827 0.002169504 -4.806141e-26)
(0.00262996 0.000147661 2.07226e-25)
(0.002601112 0.0004478268 3.356727e-27)
(0.002547017 0.0007508316 -1.113332e-26)
(0.002457638 0.001056079 -1.564755e-26)
(0.00232428 0.001363404 0)
(0.002150394 0.001654413 1.55836e-25)
(0.001924261 0.001935678 -8.302403e-26)
(0.002325607 0.0001350741 0)
(0.002298015 0.000407982 5.893671e-27)
(0.002242373 0.000684273 9.910863e-27)
(0.002150398 0.0009616301 -3.664322e-25)
(0.002030487 0.00121874 -1.343657e-25)
(0.001861625 0.001479306 -1.326398e-25)
(0.001662136 0.001716241 -9.170548e-27)
(0.002049265 0.0001219345 8.491593e-28)
(0.002022244 0.0003689138 2.604045e-27)
(0.00196823 0.0006158996 0)
(0.001884079 0.0008587317 6.221996e-28)
(0.001764751 0.001094396 -8.632337e-26)
(0.001617437 0.001316727 -6.374854e-26)
(0.001441782 0.001519694 4.095058e-26)
(0.001799352 0.0001100132 -1.09899e-25)
(0.001773763 0.0003326334 1.096823e-25)
(0.001720575 0.0005563667 -1.492201e-25)
(0.001645611 0.0007665456 2.072251e-25)
(0.00153455 0.0009754769 -5.048866e-26)
(0.00140277 0.001167975 0)
(0.001245403 0.001341937 -3.465886e-26)
(0.001574356 9.90989e-05 -8.658325e-26)
(0.001548786 0.0002995572 7.820632e-26)
(0.001503433 0.0004922751 -6.960608e-26)
(0.001429176 0.000683823 0)
(0.001331685 0.0008646668 4.477687e-26)
(0.001212608 0.001032076 0)
(0.001071869 0.001183485 -7.411398e-27)
(0.00137378 8.812077e-05 0)
(0.001351752 0.0002651446 0)
(0.001307409 0.0004386949 1.040955e-25)
(0.001241372 0.0006056592 0)
(0.001154549 0.0007634937 5.764145e-26)
(0.001047991 0.0009101213 1.371445e-26)
(0.0009216112 0.001043622 3.896742e-27)
(0.001195009 7.906387e-05 4.712026e-26)
(0.00117645 0.0002344057 0)
(0.001135595 0.0003874376 3.354419e-26)
(0.001076235 0.0005338035 -3.001634e-26)
(0.0009989 0.0006720864 1.554829e-26)
(0.0009036428 0.0007997535 4.751056e-27)
(0.0007909715 0.0009143102 -1.285704e-26)
(0.001037607 6.952575e-05 3.18484e-26)
(0.001020044 0.0002072327 2.771198e-26)
(0.000984643 0.0003401876 0)
(0.0009323433 0.0004686107 -1.974397e-26)
(0.000863654 0.0005901468 -6.502983e-27)
(0.0007792483 0.0007014425 -5.726388e-27)
(0.0006795384 0.0007993442 2.517591e-26)
(0.0008995816 6.152852e-05 1.95292e-26)
(0.0008838573 0.0001823557 1.62479e-26)
(0.0008527799 0.0002986363 -1.123092e-26)
(0.0008071622 0.0004110722 0)
(0.0007463929 0.0005170552 0)
(0.0006714486 0.0006145644 -1.384701e-26)
(0.0005808819 0.0007039975 -3.037264e-26)
(0.0007792208 5.366449e-05 9.215574e-27)
(0.0007650801 0.0001592053 6.408064e-27)
(0.0007378891 0.0002610768 -2.042088e-27)
(0.0006973171 0.0003593978 0)
(0.0006434575 0.000451595 -4.369849e-27)
(0.0005769619 0.0005356303 2.258901e-30)
(0.0004964013 0.000610537 5.501938e-27)
(0.0006731712 4.665988e-05 0)
(0.0006612038 0.000138774 -1.708994e-27)
(0.0006375809 0.0002277073 5.369474e-27)
(0.000601708 0.0003132604 0)
(0.0005542992 0.000393234 -1.308016e-26)
(0.0004954942 0.0004657674 8.036201e-27)
(0.0004247941 0.0005299254 4.354963e-27)
(0.0005808643 4.060466e-05 6.250179e-27)
(0.0005708876 0.0001207752 2.645703e-28)
(0.0005502022 0.0001980743 1.180075e-26)
(0.000518765 0.0002724011 1.142752e-27)
(0.0004771762 0.0003414918 1.357723e-27)
(0.000425449 0.0004039071 -2.73645e-26)
(0.0003638757 0.0004586334 0)
(0.0005007433 3.532333e-05 2.35153e-26)
(0.0004923143 0.0001049365 0)
(0.0004742883 0.0001719468 0)
(0.0004469156 0.0002364823 1.883107e-26)
(0.0004104719 0.000296506 4.750262e-26)
(0.0003644785 0.0003511918 -2.978674e-26)
(0.0003119122 0.0003958594 0)
(0.0004312249 3.069517e-05 1.606758e-26)
(0.0004239853 9.102835e-05 1.604516e-28)
(0.0004085123 0.0001490653 2.536971e-28)
(0.0003847718 0.0002049739 6.905052e-28)
(0.0003530782 0.0002567382 2.749749e-26)
(0.0003135833 0.0003029932 0)
(0.0002672841 0.0003427194 -3.657538e-26)
(0.0003710046 2.66014e-05 2.111103e-29)
(0.000364714 7.897758e-05 -2.036127e-26)
(0.0003516272 0.0001292185 -2.222287e-26)
(0.0003311486 0.0001774918 -5.005134e-26)
(0.0003039912 0.0002225805 0)
(0.0002701133 0.0002625936 -3.236531e-26)
(0.0002303175 0.0002963903 -1.015516e-29)
(0.0003187469 2.292928e-05 -2.180834e-26)
(0.0003133849 6.84836e-05 -4.554772e-26)
(0.000302265 0.0001121121 -4.858104e-26)
(0.0002849344 0.0001538658 -2.617851e-26)
(0.0002617182 0.0001930121 3.975778e-28)
(0.0002325678 0.0002276122 -3.264424e-26)
(0.0001989622 0.0002567824 3.573412e-26)
(0.000273263 1.97918e-05 -2.353186e-26)
(0.0002688429 5.943317e-05 -4.871551e-26)
(0.0002593705 9.755349e-05 -2.566541e-26)
(0.0002449104 0.0001338615 0)
(0.0002244703 0.000168164 2.364391e-27)
(0.0002002835 0.0001975939 2.769898e-27)
(0.000172265 0.0002232043 3.696574e-28)
(0.0002337281 1.709821e-05 -2.466159e-26)
(0.0002301468 5.165082e-05 -2.535971e-26)
(0.0002220365 8.518844e-05 -1.477466e-28)
(0.0002099035 0.0001165729 -1.125876e-28)
(0.0001929637 0.0001459577 0)
(0.0001721262 0.0001729405 -3.198596e-26)
(0.0001489488 0.0001951314 -2.023608e-29)
(0.0001993687 1.482464e-05 -2.52882e-26)
(0.0001964442 4.491717e-05 -2.585417e-26)
(0.0001896393 7.450404e-05 -3.515549e-29)
(0.0001791192 0.0001023282 -1.515697e-29)
(0.0001653744 0.0001279293 0)
(0.00014793 0.0001515152 -3.12038e-26)
(0.0001283822 0.0001715873 2.179813e-28)
(0.0001692107 1.284375e-05 1.008798e-30)
(0.0001669853 3.925127e-05 -5.18986e-26)
(0.0001614248 6.523656e-05 8.982422e-30)
(0.0001522806 9.003108e-05 1.957274e-29)
(0.0001405224 0.0001129721 0)
(0.0001262713 0.0001336777 0)
(0.0001099944 0.0001522712 0)
(0.0001427042 1.135953e-05 0)
(0.0001411101 3.466819e-05 -2.573293e-26)
(0.0001363548 5.738689e-05 0)
(0.0001287121 7.931526e-05 2.709253e-26)
(0.0001185235 0.0001002263 -1.435289e-28)
(0.0001062418 0.0001188875 -2.140518e-28)
(9.28549e-05 0.0001360245 3.045123e-26)
(0.0001195464 1.011396e-05 -2.501704e-26)
(0.0001181839 3.066934e-05 0)
(0.0001141453 5.0764e-05 9.674448e-29)
(0.0001074177 7.052927e-05 2.57088e-26)
(9.889217e-05 8.883145e-05 -2.872843e-26)
(8.77553e-05 0.0001061528 0)
(7.620866e-05 0.0001222185 2.952863e-26)
(9.908462e-05 8.96269e-06 -2.436508e-26)
(9.788949e-05 2.7259e-05 0)
(9.445488e-05 4.497502e-05 6.425529e-29)
(8.879907e-05 6.239156e-05 9.506853e-29)
(8.08185e-05 7.897939e-05 -5.268033e-26)
(7.132271e-05 9.4599e-05 2.725433e-26)
(6.016154e-05 0.0001094935 -2.834586e-26)
(8.097904e-05 7.976999e-06 0)
(7.989968e-05 2.421617e-05 -2.365989e-26)
(7.692064e-05 4.005621e-05 7.666104e-29)
(7.20305e-05 5.533854e-05 2.445575e-26)
(6.510296e-05 7.004954e-05 -2.513006e-26)
(5.648394e-05 8.37998e-05 2.596179e-26)
(4.600283e-05 9.699999e-05 7.220238e-30)
(6.488237e-05 7.027851e-06 0)
(6.400187e-05 2.153145e-05 -2.264256e-26)
(6.142007e-05 3.560646e-05 2.292595e-26)
(5.725173e-05 4.926714e-05 2.33579e-26)
(5.11776e-05 6.20223e-05 -2.36443e-26)
(4.351773e-05 7.384128e-05 4.420541e-28)
(3.388517e-05 8.503195e-05 2.542922e-26)
(5.053147e-05 6.312867e-06 0)
(4.993456e-05 1.920666e-05 0)
(4.782578e-05 3.186809e-05 2.164723e-26)
(4.429883e-05 4.380529e-05 -2.187987e-26)
(3.911831e-05 5.49175e-05 5.893509e-30)
(3.240193e-05 6.490614e-05 0)
(2.382792e-05 7.380236e-05 0)
(3.779224e-05 5.707085e-06 -2.007254e-26)
(3.743465e-05 1.735934e-05 2.010715e-26)
(3.593439e-05 2.855462e-05 1.00102e-26)
(3.295268e-05 3.92381e-05 -2.055347e-26)
(2.876706e-05 4.86951e-05 -5.962596e-30)
(2.306849e-05 5.696524e-05 5.220746e-28)
(1.591943e-05 6.416306e-05 4.575338e-31)
(2.636876e-05 5.259772e-06 1.198948e-30)
(2.631837e-05 1.591174e-05 1.867394e-26)
(2.539221e-05 2.592581e-05 9.248491e-27)
(2.32765e-05 3.522327e-05 -1.565983e-28)
(1.984826e-05 4.35328e-05 -3.82998e-26)
(1.544259e-05 5.043368e-05 -2.737705e-28)
(9.533537e-06 5.588727e-05 0)
(1.594778e-05 4.955069e-06 1.722575e-26)
(1.63074e-05 1.489199e-05 -8.594218e-27)
(1.605682e-05 2.393687e-05 -8.561604e-27)
(1.485203e-05 3.211382e-05 0)
(1.245902e-05 3.922231e-05 -1.719947e-26)
(8.936762e-06 4.496476e-05 -2.831061e-28)
(4.501383e-06 4.934579e-05 -3.542036e-28)
(6.215149e-06 4.848733e-06 0)
(7.193406e-06 1.436927e-05 -7.821035e-27)
(7.683878e-06 2.270651e-05 -6.933277e-27)
(7.474445e-06 2.979199e-05 1.239538e-27)
(6.019866e-06 3.580663e-05 -7.882149e-27)
(3.633653e-06 4.069764e-05 -2.884998e-28)
(3.830347e-07 4.434039e-05 0)
(-3.159779e-06 4.973906e-06 0)
(-1.24859e-06 1.434993e-05 -2.755249e-29)