/*--------------------------------*- C++ -*----------------------------------*\
| =========                 |                                                 |
| \\      /  F ield         | OpenFOAM: The Open Source CFD Toolbox           |
|  \\    /   O peration     | Version:  2206                                  |
|   \\  /    A nd           | Website:  www.openfoam.com                      |
|    \\/     M anipulation  |                                                 |
\*---------------------------------------------------------------------------*/
FoamFile
{
    version     2.0;
    format      ascii;
    arch        "LSB;label=32;scalar=64";
    class       volScalarField;
    location    "1.4";
    object      ddt0(omega.b);
}
// * * * * * * * * * * * * * * * * * * * * * * * * * * * * * * * * * * * * * //

dimensions      [0 0 -2 0 0 0 0];

internalField   nonuniform List<scalar> 
13078
(
2.711044e-08
-0.25792
-0.3067692
-0.3084029
-0.3091902
-0.3100433
-0.3110159
-4.471424e-08
-0.2604456
-0.3070596
-0.3084176
-0.3091774
-0.3100288
-0.3109976
-3.381768e-08
-0.2635059
-0.3070891
-0.3084059
-0.3091679
-0.3100157
-0.3109805
-3.984182e-08
-0.2644816
-0.3071122
-0.3084014
-0.3091589
-0.310003
-0.3109639
-4.395385e-08
-0.2648455
-0.3071271
-0.3084053
-0.30915
-0.3099901
-0.3109474
-4.706298e-08
-0.2650536
-0.3071348
-0.3084079
-0.309151
-0.3099777
-0.3109307
-5.020867e-08
-0.2651449
-0.3071288
-0.3084054
-0.3091514
-0.3099767
-0.3109148
-5.353807e-08
-0.2651624
-0.3071174
-0.3084023
-0.3091508
-0.3099762
-0.3109125
-5.715727e-08
-0.2651544
-0.3071163
-0.3084007
-0.3091498
-0.3099749
-0.3109108
-6.116816e-08
-0.2651093
-0.3071141
-0.3083989
-0.3091482
-0.3099732
-0.3109088
-6.567555e-08
-0.2650381
-0.3071111
-0.3083969
-0.3091463
-0.3099712
-0.3109064
-7.080801e-08
-0.2649464
-0.3071077
-0.3083949
-0.3091443
-0.3099689
-0.3109039
-7.6707e-08
-0.2648376
-0.307104
-0.3083927
-0.3091422
-0.3099666
-0.3109011
-8.355326e-08
-0.2647125
-0.3071001
-0.3083903
-0.3091396
-0.309964
-0.310898
-9.156777e-08
-0.2645722
-0.3070953
-0.3083843
-0.3091316
-0.3099608
-0.3108949
-1.010262e-07
-0.2644165
-0.3070899
-0.3083767
-0.3091247
-0.3099578
-0.3108917
-1.122721e-07
-0.2642451
-0.3070852
-0.3083739
-0.3091217
-0.3099549
-0.3108884
-1.257515e-07
-0.2640567
-0.3070802
-0.3083713
-0.309119
-0.3099521
-0.3108851
-1.420181e-07
-0.263849
-0.3070748
-0.3083687
-0.3091159
-0.3099484
-0.3108815
-1.617938e-07
-0.2636207
-0.3070691
-0.3083656
-0.3091072
-0.3099363
-0.3108771
-1.859891e-07
-0.2633686
-0.3070629
-0.3083622
-0.3090962
-0.309926
-0.3108727
-2.157709e-07
-0.2630887
-0.3070563
-0.3083592
-0.3090921
-0.309922
-0.3108688
-2.525966e-07
-0.2627766
-0.307049
-0.3083559
-0.3090885
-0.3099176
-0.310864
-2.983034e-07
-0.2624273
-0.3070411
-0.3083525
-0.3090841
-0.3099052
-0.3108466
-3.551702e-07
-0.2620342
-0.3070324
-0.3083488
-0.3090794
-0.3098892
-0.3108317
-4.26006e-07
-0.2615903
-0.3070225
-0.3083447
-0.3090747
-0.3098835
-0.3108258
-5.142121e-07
-0.2610921
-0.3070114
-0.3083401
-0.3090697
-0.3098779
-0.31082
-6.234048e-07
-0.2605206
-0.306998
-0.308335
-0.3090642
-0.3098711
-0.3108016
-7.580286e-07
-0.2599069
-0.3069843
-0.3083292
-0.3090578
-0.3098632
-0.3107766
-9.15875e-07
-0.2590788
-0.3069569
-0.3083223
-0.3090505
-0.3098554
-0.3107676
-1.103862e-06
-0.2577175
-0.3069454
-0.3083141
-0.309042
-0.3098461
-0.3107559
-1.343637e-06
-0.256096
-0.306936
-0.308303
-0.3090315
-0.3098351
-0.3107426
-1.599667e-06
-0.2540931
-0.3068582
-0.3082883
-0.3090176
-0.3098219
-0.3107286
-1.876404e-06
-0.2529769
-0.3067945
-0.3082725
-0.3090002
-0.3098044
-0.3107112
-2.192386e-06
-0.2518853
-0.3067614
-0.3082504
-0.308986
-0.3097792
-0.3106882
-2.559001e-06
-0.2508729
-0.3067268
-0.3082086
-0.3089506
-0.3097534
-0.3106566
-2.997863e-06
-0.2500338
-0.306696
-0.3081867
-0.3088919
-0.3097333
-0.3106179
-3.522572e-06
-0.2494831
-0.3066667
-0.3081635
-0.3088584
-0.3096885
-0.3105865
-4.149996e-06
-0.2494493
-0.3066389
-0.3081359
-0.3088209
-0.3095814
-0.3105634
-4.854707e-06
-0.2500663
-0.3065981
-0.3080939
-0.3087699
-0.3095061
-0.3104765
-5.668106e-06
-0.2485356
-0.30662
-0.3080169
-0.3086699
-0.3093694
-0.3101346
-6.818089e-06
-0.2480361
-0.3064702
-0.3079193
-0.3084925
-0.3091551
-0.3101017
-8.204243e-06
-0.2492744
-0.3062787
-0.3077273
-0.3083209
-0.3091056
-0.3102433
-9.331669e-06
-0.2509425
-0.3060927
-0.307405
-0.3083319
-0.3093753
-0.3102141
-9.967954e-06
-0.2528392
-0.3058382
-0.3073784
-0.308337
-0.3094604
-0.3100038
-1.019713e-05
-0.2520375
-0.3057213
-0.3075641
-0.3085125
-0.3091414
-0.3109474
-1.018016e-05
-0.2495648
-0.3056465
-0.3076688
-0.3085727
-0.3094613
-0.3118603
0.0009840302
-0.2459168
-0.3055964
-0.3077652
-0.3083917
-0.3103567
-0.3126724
0.01306309
-0.2387788
-0.3054414
-0.307811
-0.3089037
-0.3110781
-0.3129366
0.04342106
-0.2301603
-0.3052707
-0.307874
-0.3097768
-0.3116436
-0.313031
0.09568062
-0.2165461
-0.3048389
-0.3084164
-0.3106901
-0.3122659
-0.3135298
0.1689209
-0.1921835
-0.304314
-0.3091173
-0.3112654
-0.3126154
-0.3137
0.2354792
-0.1688742
-0.3035791
-0.3094729
-0.3117591
-0.3131267
-0.314301
0.283587
-0.1546792
-0.3030067
-0.3095165
-0.3117616
-0.3128502
-0.313145
0.3185281
-0.1448351
-0.302538
-0.3094252
-0.31162
-0.3126222
-0.3128044
0.3489984
-0.1340558
-0.3020394
-0.3092172
-0.3113639
-0.3124752
-0.3130218
0.3499149
-0.1359423
-0.3018748
-0.3089917
-0.3112166
-0.3124371
-0.3131879
0.3196829
-0.1496285
-0.3022607
-0.3090187
-0.3114553
-0.3129537
-0.3137973
0.2847782
-0.1623033
-0.3027128
-0.3089117
-0.3113571
-0.3129342
-0.3140739
0.237466
-0.1794341
-0.3032894
-0.3085954
-0.3108424
-0.3121697
-0.3130093
0.171355
-0.204136
-0.3039472
-0.3080307
-0.3100086
-0.3112397
-0.3123175
0.0980991
-0.2273698
-0.3046666
-0.3074981
-0.3095
-0.310993
-0.3123229
0.04476448
-0.2405998
-0.3052461
-0.3070805
-0.3086927
-0.3105088
-0.3119684
0.01389079
-0.248959
-0.3054503
-0.3072756
-0.3079094
-0.3099656
-0.3119075
0.001059749
-0.2549671
-0.3056542
-0.307424
-0.3077216
-0.3093794
-0.3116172
-9.867954e-06
-0.256835
-0.3057659
-0.3074876
-0.3082557
-0.3086839
-0.3107943
-9.84869e-06
-0.2573085
-0.3058703
-0.3074865
-0.3082553
-0.3089598
-0.310019
-9.465258e-06
-0.2568127
-0.3059663
-0.3073694
-0.3082176
-0.3091961
-0.3098746
-7.963127e-06
-0.2537997
-0.3061676
-0.3074373
-0.3082624
-0.3092123
-0.3100224
-6.481476e-06
-0.2513484
-0.3063172
-0.3077155
-0.3083043
-0.3090375
-0.3101065
-5.301615e-06
-0.2494819
-0.3064737
-0.3078942
-0.3084876
-0.3091812
-0.3100834
-4.38578e-06
-0.2490765
-0.3065932
-0.3080051
-0.3086682
-0.3093801
-0.3101617
-3.726147e-06
-0.249659
-0.3065833
-0.3080959
-0.3087736
-0.3095044
-0.3104752
-3.158295e-06
-0.2487325
-0.3066122
-0.3081415
-0.3088207
-0.3095848
-0.3105673
-2.662313e-06
-0.2484889
-0.3066485
-0.3081659
-0.3088607
-0.3096977
-0.3105952
-2.248626e-06
-0.2491291
-0.3066872
-0.3081892
-0.3089123
-0.3097444
-0.3106277
-1.904473e-06
-0.2499616
-0.3067085
-0.3082134
-0.3089626
-0.3097578
-0.3106684
-1.62418e-06
-0.2510716
-0.3067391
-0.3082546
-0.308989
-0.3097881
-0.3106989
-1.379577e-06
-0.2520117
-0.3067742
-0.3082765
-0.309006
-0.3098121
-0.3107208
-1.166412e-06
-0.2530663
-0.3068377
-0.308292
-0.3090229
-0.3098289
-0.3107375
-9.846627e-07
-0.255068
-0.3069179
-0.3083062
-0.3090363
-0.3098414
-0.3107506
-8.323298e-07
-0.256707
-0.3069262
-0.3083171
-0.3090464
-0.3098518
-0.3107631
-7.146311e-07
-0.2581843
-0.3069386
-0.3083249
-0.3090545
-0.3098605
-0.3107739
-6.098276e-07
-0.2589955
-0.3069669
-0.3083315
-0.3090613
-0.3098676
-0.310782
-5.154532e-07
-0.2596685
-0.3069818
-0.308337
-0.3090671
-0.3098749
-0.3108064
-4.370972e-07
-0.2603004
-0.3069963
-0.3083419
-0.3090723
-0.3098812
-0.3108243
-3.719373e-07
-0.2608647
-0.3070087
-0.3083461
-0.3090769
-0.3098864
-0.3108295
-3.184243e-07
-0.2613739
-0.3070199
-0.30835
-0.3090812
-0.3098918
-0.310835
-2.74876e-07
-0.2618299
-0.3070296
-0.3083535
-0.3090858
-0.3099073
-0.3108493
-2.39877e-07
-0.2622387
-0.3070387
-0.3083568
-0.30909
-0.3099196
-0.3108664
-2.115994e-07
-0.2626064
-0.3070471
-0.30836
-0.3090935
-0.3099237
-0.3108709
-1.88569e-07
-0.2629377
-0.3070547
-0.308363
-0.3090973
-0.3099275
-0.3108746
-1.692394e-07
-0.2632375
-0.3070616
-0.3083661
-0.309108
-0.3099375
-0.3108787
-1.511646e-07
-0.2635092
-0.3070683
-0.308369
-0.3091166
-0.3099495
-0.3108829
-1.344168e-07
-0.2637566
-0.3070743
-0.3083715
-0.3091195
-0.3099529
-0.3108863
-1.200442e-07
-0.2639815
-0.3070799
-0.308374
-0.3091222
-0.3099556
-0.3108895
-1.078934e-07
-0.2641863
-0.3070852
-0.3083768
-0.309125
-0.3099584
-0.3108927
-9.760188e-08
-0.2643727
-0.3070912
-0.3083842
-0.3091318
-0.3099614
-0.3108958
-8.883606e-08
-0.2645416
-0.3070965
-0.3083901
-0.3091398
-0.3099645
-0.3108988
-8.132291e-08
-0.2646936
-0.3071009
-0.3083925
-0.3091424
-0.309967
-0.3109018
-7.48317e-08
-0.2648286
-0.3071051
-0.3083946
-0.3091444
-0.3099693
-0.3109045
-6.917502e-08
-0.264947
-0.307109
-0.3083966
-0.3091464
-0.3099716
-0.3109071
-6.420108e-08
-0.2650468
-0.3071124
-0.3083986
-0.3091484
-0.3099737
-0.3109097
-5.97814e-08
-0.2651251
-0.3071154
-0.3084005
-0.3091501
-0.3099756
-0.3109118
-5.580628e-08
-0.2651744
-0.3071175
-0.3084024
-0.3091515
-0.3099772
-0.3109138
-5.217609e-08
-0.2652114
-0.3071306
-0.3084062
-0.3091527
-0.3099782
-0.3109164
-4.88024e-08
-0.2651946
-0.3071392
-0.30841
-0.3091532
-0.3099799
-0.3109328
-4.559671e-08
-0.2650872
-0.3071359
-0.3084092
-0.3091536
-0.3099932
-0.31095
-4.239677e-08
-0.264881
-0.307128
-0.3084077
-0.3091637
-0.3100067
-0.3109668
-3.816346e-08
-0.2644592
-0.3071156
-0.3084142
-0.3091736
-0.3100197
-0.3109833
-3.17118e-08
-0.2637543
-0.3071303
-0.30842
-0.3091831
-0.3100323
-0.3109998
-4.318364e-08
-0.2626561
-0.307133
-0.3084379
-0.3091939
-0.3100455
-0.3110169
-0.3121559
-0.3135905
-0.3155104
-0.3173396
-0.3205912
-0.3256853
-0.3412314
-0.3121333
-0.3135605
-0.3154708
-0.31729
-0.3205318
-0.3256013
-0.3311773
-0.3121116
-0.3135315
-0.3154319
-0.3179272
-0.3204736
-0.3255195
-0.330842
-0.3120904
-0.3135027
-0.3153927
-0.3171937
-0.3204143
-0.3254378
-0.3305703
-0.31207
-0.3134741
-0.315354
-0.3171462
-0.3203562
-0.3253562
-0.330362
-0.3120494
-0.3134456
-0.3153155
-0.3170987
-0.320298
-0.3252747
-0.3301515
-0.3120287
-0.313417
-0.3152769
-0.3170523
-0.3202817
-0.3251935
-0.3299397
-0.3120091
-0.3133882
-0.3152383
-0.3170067
-0.3202662
-0.3251132
-0.3297267
-0.3120053
-0.3133611
-0.3152015
-0.3169596
-0.32022
-0.3250411
-0.3295129
-0.3120024
-0.3133549
-0.3151667
-0.3169125
-0.3201737
-0.3249693
-0.3292992
-0.3119994
-0.3133504
-0.3151578
-0.3168666
-0.3201274
-0.3248978
-0.3290906
-0.3119961
-0.3133454
-0.315151
-0.3168563
-0.3200808
-0.3248263
-0.3288995
-0.3119925
-0.3133401
-0.3151437
-0.3168472
-0.3200722
-0.3247531
-0.3287477
-0.3119886
-0.3133347
-0.3151362
-0.3168376
-0.3200623
-0.3247355
-0.3289654
-0.3119846
-0.3133289
-0.3151283
-0.3168276
-0.3200518
-0.3247129
-0.3298241
-0.3119805
-0.313323
-0.3151202
-0.3168173
-0.3200416
-0.3246966
-0.3325846
-0.3119763
-0.3133168
-0.3151119
-0.3168069
-0.3200278
-0.3246797
-0.3331959
-0.311972
-0.3133106
-0.3151033
-0.3167915
-0.3198879
-0.3246613
-0.3334739
-0.3119675
-0.3133046
-0.3150945
-0.3167802
-0.319871
-0.3246423
-0.3336576
-0.3119627
-0.3132983
-0.3150853
-0.3167685
-0.3198563
-0.3246225
-0.3337894
-0.311958
-0.3132919
-0.3150758
-0.3167565
-0.3198411
-0.3246023
-0.3338331
-0.3119531
-0.3132851
-0.315066
-0.3167442
-0.3198256
-0.324581
-0.3338024
-0.3119481
-0.3132782
-0.3150558
-0.3167323
-0.3198073
-0.3245588
-0.3337253
-0.3119417
-0.3132712
-0.3150458
-0.3173527
-0.3196786
-0.3245238
-0.3336702
-0.3119353
-0.3132638
-0.3150343
-0.3167054
-0.3196105
-0.3244964
-0.3336469
-0.3119297
-0.3132565
-0.3150244
-0.3166904
-0.3195887
-0.3244718
-0.3336067
-0.3119225
-0.3132488
-0.3150127
-0.3166766
-0.3195662
-0.3244412
-0.3335963
-0.3118966
-0.3132396
-0.3150047
-0.3166613
-0.3195351
-0.3241753
-0.3335697
-0.3118751
-0.3128726
-0.3145102
-0.3166449
-0.3195075
-0.3240768
-0.3335488
-0.3118722
-0.312866
-0.3144993
-0.3166275
-0.3194834
-0.3240413
-0.3335304
-0.3118281
-0.3128316
-0.3144878
-0.3166105
-0.3194586
-0.3238647
-0.3334686
-0.3117946
-0.3127807
-0.3144748
-0.3165924
-0.3194321
-0.323644
-0.3333944
-0.311778
-0.3127454
-0.3144514
-0.3165729
-0.319404
-0.3235961
-0.333358
-0.3117584
-0.3127195
-0.3143866
-0.3165519
-0.3193734
-0.3235115
-0.3323015
-0.3117335
-0.3127092
-0.3143583
-0.3165218
-0.3193404
-0.3234484
-0.3319889
-0.3117039
-0.312697
-0.3142045
-0.3164752
-0.3193052
-0.3233877
-0.3328185
-0.311665
-0.3126864
-0.3141533
-0.316325
-0.319286
-0.3233378
-0.3308492
-0.3116098
-0.3126797
-0.3141246
-0.3163546
-0.3191444
-0.3234103
-0.3311485
-0.3115364
-0.3126474
-0.3140671
-0.3161043
-0.3190172
-0.3234269
-0.3290176
-0.3114013
-0.3126037
-0.3140228
-0.3162868
-0.3193068
-0.3234773
-0.3303602
-0.3114328
-0.3123958
-0.3141966
-0.3161284
-0.3203855
-0.3257216
-0.3332468
-0.3113331
-0.3121865
-0.3141689
-0.3183121
-0.3223634
-0.3261031
-0.3327459
-0.3114152
-0.3115608
-0.3155173
-0.3199346
-0.3234211
-0.3262295
-0.3331832
-0.3111214
-0.3130244
-0.3172462
-0.3214461
-0.3246793
-0.3273653
-0.3360269
-0.312436
-0.3147465
-0.3186542
-0.322316
-0.3251631
-0.3283496
-0.3385572
-0.3138047
-0.3160681
-0.319769
-0.3229022
-0.3252607
-0.3291418
-0.3396608
-0.3146127
-0.3170143
-0.3207919
-0.3231017
-0.3256009
-0.3289675
-0.3393545
-0.3150209
-0.3178745
-0.3205345
-0.3229147
-0.3248288
-0.3288748
-0.3361469
-0.3151183
-0.3176924
-0.3205961
-0.3227498
-0.3238588
-0.3277278
-0.3351678
-0.3150863
-0.3180718
-0.3210956
-0.322856
-0.32447
-0.3268923
-0.3329966
-0.3156036
-0.3180012
-0.3212123
-0.3232292
-0.3245814
-0.3266689
-0.3315539
-0.3158962
-0.3185693
-0.3218791
-0.3229078
-0.3246772
-0.3281272
-0.3322574
-0.3157553
-0.3184466
-0.3196479
-0.3205641
-0.3225703
-0.3261334
-0.3320701
-0.3143984
-0.3168761
-0.3186528
-0.3201247
-0.3204437
-0.3227172
-0.329299
-0.3142432
-0.3163132
-0.318353
-0.3192981
-0.3217489
-0.3239456
-0.3252374
-0.3146235
-0.3161465
-0.3178013
-0.3186905
-0.3206859
-0.3192988
-0.3151668
-0.3167894
-0.3190125
-0.3190117
-0.3176864
-0.318025
-0.3152101
-0.317475
-0.3183935
-0.3201756
-0.3189688
-0.3193066
-0.3157464
-0.3174684
-0.3186609
-0.3207063
-0.3197187
-0.3221406
-0.3258308
-0.3149061
-0.3175383
-0.319956
-0.3198122
-0.3199935
-0.3235848
-0.3357459
-0.3145343
-0.3168238
-0.3197948
-0.3217629
-0.3214943
-0.3248247
-0.3316695
-0.314589
-0.3171549
-0.3202176
-0.3222382
-0.3248783
-0.3266218
-0.3325127
-0.3141344
-0.3162833
-0.3207781
-0.3222535
-0.324388
-0.3273373
-0.3345807
-0.314143
-0.3168072
-0.3202006
-0.3225365
-0.3238383
-0.3276664
-0.3349296
-0.3139405
-0.3165167
-0.320077
-0.3219444
-0.3247645
-0.3265827
-0.3339056
-0.3134752
-0.3160898
-0.3191892
-0.3227226
-0.3240404
-0.3277025
-0.3359511
-0.3126983
-0.3154229
-0.3188437
-0.3215061
-0.3251342
-0.3264492
-0.3382906
-0.3114325
-0.3146586
-0.3176324
-0.3212951
-0.3237599
-0.3273101
-0.336948
-0.3109466
-0.3131186
-0.3165347
-0.3198188
-0.3231962
-0.3259856
-0.3359959
-0.3111281
-0.3124712
-0.3151159
-0.3184402
-0.3222253
-0.3243979
-0.3331239
-0.3111736
-0.3122278
-0.3133819
-0.3179194
-0.3212382
-0.3247066
-0.3336043
-0.3113555
-0.3127329
-0.3140069
-0.3160031
-0.3202466
-0.3252784
-0.333399
-0.3114327
-0.3126194
-0.3139831
-0.3161562
-0.3186891
-0.3239488
-0.3317212
-0.3115456
-0.3127564
-0.3139997
-0.3159753
-0.3195941
-0.3238521
-0.3307535
-0.3116203
-0.3127768
-0.3141089
-0.3161068
-0.3191188
-0.3237561
-0.3317244
-0.3116769
-0.3127848
-0.314163
-0.3166466
-0.3192707
-0.3235353
-0.3315541
-0.3117167
-0.3127718
-0.3142104
-0.3164411
-0.3193347
-0.3234631
-0.3317153
-0.3117462
-0.3127593
-0.3142624
-0.3165273
-0.3193692
-0.3235007
-0.3323958
-0.3117706
-0.3127407
-0.3143788
-0.3165685
-0.3193988
-0.3235516
-0.3325207
-0.3117892
-0.3127916
-0.3144585
-0.3165877
-0.3194252
-0.3236282
-0.3332182
-0.3118047
-0.3128091
-0.3144786
-0.3166047
-0.3194492
-0.3236681
-0.3336993
-0.311837
-0.3128131
-0.314496
-0.3166206
-0.319472
-0.3237224
-0.3337135
-0.3118804
-0.3128777
-0.3145063
-0.3166355
-0.3194943
-0.3240727
-0.3337878
-0.311882
-0.3129081
-0.3145162
-0.3166491
-0.3195157
-0.3240939
-0.3337999
-0.3119024
-0.3132472
-0.3150147
-0.3166615
-0.3195378
-0.3241265
-0.3337924
-0.3119278
-0.3132557
-0.3150215
-0.3166777
-0.3195681
-0.324366
-0.3338065
-0.3119344
-0.3132625
-0.3150317
-0.3166904
-0.3195916
-0.3244835
-0.3338132
-0.3119393
-0.3132691
-0.3150418
-0.3167032
-0.3196124
-0.324506
-0.3338369
-0.3119452
-0.3132758
-0.3150518
-0.3167162
-0.319635
-0.3245283
-0.3338427
-0.3119511
-0.3132823
-0.3150615
-0.3167287
-0.3197722
-0.3245605
-0.3338835
-0.3119558
-0.3132887
-0.315071
-0.316741
-0.3198266
-0.3245861
-0.3338993
-0.3119604
-0.3132951
-0.3150802
-0.3167531
-0.3198416
-0.3246062
-0.3339119
-0.3119649
-0.3133012
-0.3150892
-0.316765
-0.3198564
-0.3246256
-0.3339167
-0.3119694
-0.3133072
-0.315098
-0.3167764
-0.3198705
-0.3246446
-0.3338515
-0.3119737
-0.3133129
-0.3151064
-0.3167872
-0.3198841
-0.3246629
-0.3337131
-0.3119778
-0.3133188
-0.3151147
-0.3168009
-0.3199557
-0.3246808
-0.3334605
-0.3119818
-0.3133248
-0.3151227
-0.3168131
-0.3200416
-0.3246981
-0.3330924
-0.3119858
-0.3133305
-0.3151305
-0.3168231
-0.320051
-0.3247138
-0.3325109
-0.3119896
-0.3133361
-0.3151381
-0.3168329
-0.3200603
-0.3247288
-0.3305974
-0.3119934
-0.3133415
-0.3151455
-0.3168423
-0.3200698
-0.3247456
-0.3286324
-0.311997
-0.3133466
-0.3151527
-0.3168516
-0.3200796
-0.3247951
-0.3291075
-0.3120004
-0.3133517
-0.3151595
-0.3168602
-0.3201074
-0.3248678
-0.3291479
-0.3120035
-0.3133563
-0.3151683
-0.3168883
-0.3201534
-0.3249388
-0.3292947
-0.3120065
-0.3133626
-0.3152031
-0.3169353
-0.3201995
-0.3250097
-0.3294819
-0.3120105
-0.3133897
-0.31524
-0.3169826
-0.3202456
-0.3250812
-0.32968
-0.3120303
-0.3134186
-0.3152785
-0.3170297
-0.3202898
-0.3251566
-0.3298865
-0.3120513
-0.3134474
-0.3153171
-0.3170745
-0.3202728
-0.325237
-0.3300865
-0.3120721
-0.3134759
-0.3153557
-0.317122
-0.3203288
-0.3253178
-0.3302891
-0.3120925
-0.3135044
-0.3153942
-0.3171696
-0.3203867
-0.3253988
-0.3304909
-0.3121135
-0.3135329
-0.3154329
-0.3172175
-0.3204447
-0.32548
-0.3307173
-0.3121347
-0.3135616
-0.3154717
-0.3172656
-0.3205031
-0.3255612
-0.3309993
-0.3121564
-0.3135908
-0.3155106
-0.3173141
-0.3205615
-0.3256415
-0.3323585
-2.029255
-1.674784
-1.791951
-1.792066
-1.792066
-1.792066
-1.792066
-1.792066
-1.792066
-1.792066
-1.792066
-1.792066
-1.792066
-1.792066
-1.792066
-1.792066
-1.792066
-1.792066
-1.894463
-1.782405
-1.792061
-1.792069
-1.79207
-1.79207
-1.79207
-1.79207
-1.79207
-1.79207
-1.79207
-1.79207
-1.79207
-1.79207
-1.79207
-1.79207
-1.79207
-1.79207
-1.931997
-1.780333
-1.792062
-1.792069
-1.792069
-1.792069
-1.792069
-1.792069
-1.792069
-1.792069
-1.792069
-1.792069
-1.792069
-1.792069
-1.792069
-1.792069
-1.792069
-1.792069
-1.947648
-1.781128
-1.792062
-1.792069
-1.792069
-1.792069
-1.792069
-1.792069
-1.792069
-1.792069
-1.792069
-1.792069
-1.792069
-1.792069
-1.792069
-1.792069
-1.792069
-1.792069
-1.960048
-1.781588
-1.792062
-1.792069
-1.792069
-1.792069
-1.792069
-1.792069
-1.792069
-1.792069
-1.792069
-1.792069
-1.792069
-1.792069
-1.792069
-1.792069
-1.792069
-1.792069
-1.972191
-1.781549
-1.792062
-1.792069
-1.792069
-1.792069
-1.792069
-1.792069
-1.792069
-1.792069
-1.792069
-1.792069
-1.792069
-1.792069
-1.792069
-1.792069
-1.792069
-1.792069
-1.984714
-1.781441
-1.792062
-1.792069
-1.792069
-1.792069
-1.792069
-1.792069
-1.792069
-1.792069
-1.792069
-1.792069
-1.792069
-1.792069
-1.792069
-1.792069
-1.792069
-1.792069
-1.997711
-1.781305
-1.792062
-1.792069
-1.792069
-1.792069
-1.792069
-1.792069
-1.792069
-1.792069
-1.792069
-1.792069
-1.792069
-1.792069
-1.792069
-1.792069
-1.792069
-1.792069
-2.011469
-1.781066
-1.792062
-1.792069
-1.792069
-1.792069
-1.792069
-1.792069
-1.792069
-1.792069
-1.792069
-1.792069
-1.792069
-1.792069
-1.792069
-1.792069
-1.792069
-1.792069
-2.026426
-1.780667
-1.792061
-1.792069
-1.792069
-1.792069
-1.792069
-1.792069
-1.792069
-1.792069
-1.792069
-1.792069
-1.792069
-1.792069
-1.792069
-1.792069
-1.792069
-1.792069
-2.043655
-1.779777
-1.792061
-1.792069
-1.792069
-1.792069
-1.792069
-1.792069
-1.792069
-1.792069
-1.792069
-1.792069
-1.792069
-1.792069
-1.792069
-1.792069
-1.792069
-1.792069
-2.067211
-1.777079
-1.792061
-1.792069
-1.792069
-1.792069
-1.792069
-1.792069
-1.792069
-1.792069
-1.792069
-1.792069
-1.792069
-1.792069
-1.792069
-1.792069
-1.792069
-1.792069
-2.143844
-1.770788
-1.79206
-1.792069
-1.792069
-1.792069
-1.792069
-1.792069
-1.792069
-1.792069
-1.792069
-1.792069
-1.792069
-1.792069
-1.792069
-1.792069
-1.792069
-1.792069
-2.035103
-1.755629
-1.792059
-1.792069
-1.792068
-1.792069
-1.792069
-1.792069
-1.792069
-1.792069
-1.792069
-1.792069
-1.792069
-1.792069
-1.792069
-1.792069
-1.792069
-1.792069
-2.729413
-1.761488
-1.792057
-1.792069
-1.792068
-1.792069
-1.792069
-1.792069
-1.792069
-1.792069
-1.792069
-1.792069
-1.792069
-1.792069
-1.792069
-1.792069
-1.792069
-1.792069
-2.383056
-1.749941
-1.792026
-1.792069
-1.792068
-1.792069
-1.792069
-1.792069
-1.792069
-1.792069
-1.792069
-1.792069
-1.792069
-1.792069
-1.792069
-1.792069
-1.792069
-1.792069
-2.23188
-1.76362
-1.791963
-1.792061
-1.792069
-1.792069
-1.792069
-1.792069
-1.792069
-1.792069
-1.792069
-1.792069
-1.792069
-1.792069
-1.792069
-1.792069
-1.792069
-1.792069
-2.184334
-1.76593
-1.791985
-1.792055
-1.792064
-1.792069
-1.792069
-1.792069
-1.792069
-1.792069
-1.792069
-1.792069
-1.792069
-1.792069
-1.792069
-1.792069
-1.792069
-1.792069
-2.144648
-1.766153
-1.792051
-1.792052
-1.792063
-1.792068
-1.792069
-1.792069
-1.792069
-1.792069
-1.792069
-1.792069
-1.792069
-1.792069
-1.792069
-1.792069
-1.792069
-1.792069
-2.104642
-1.765669
-1.792055
-1.792068
-1.792064
-1.792067
-1.792069
-1.792069
-1.792069
-1.792069
-1.792069
-1.792069
-1.792069
-1.792069
-1.792069
-1.792069
-1.792069
-1.792069
-2.061962
-1.765386
-1.792056
-1.792069
-1.792069
-1.792068
-1.792068
-1.792069
-1.792069
-1.792069
-1.792069
-1.792069
-1.792069
-1.792069
-1.792069
-1.792069
-1.792069
-1.792069
-2.026572
-1.764725
-1.792057
-1.792069
-1.792069
-1.792069
-1.792069
-1.792069
-1.792069
-1.792069
-1.792069
-1.792069
-1.792069
-1.792069
-1.792069
-1.792069
-1.792069
-1.792069
-1.995406
-1.765211
-1.792057
-1.792069
-1.792069
-1.792069
-1.792069
-1.792069
-1.792069
-1.792069
-1.792069
-1.792069
-1.792069
-1.792069
-1.792069
-1.792069
-1.792069
-1.792069
-1.964845
-1.765511
-1.792057
-1.792069
-1.792069
-1.792069
-1.792069
-1.792069
-1.792069
-1.792069
-1.792069
-1.792069
-1.792069
-1.792069
-1.792069
-1.792069
-1.792069
-1.792069
-1.936715
-1.766079
-1.792057
-1.792069
-1.792069
-1.792069
-1.792069
-1.792069
-1.792069
-1.792069
-1.792069
-1.792069
-1.792069
-1.792069
-1.792069
-1.792069
-1.792069
-1.792069
-1.910052
-1.766507
-1.792057
-1.792069
-1.792069
-1.792069
-1.792069
-1.792069
-1.792069
-1.792069
-1.792069
-1.792069
-1.792069
-1.792069
-1.792069
-1.792069
-1.792069
-1.792069
-1.880153
-1.767293
-1.792057
-1.792069
-1.792069
-1.792069
-1.792069
-1.792069
-1.792069
-1.792069
-1.792069
-1.792069
-1.792069
-1.792069
-1.792069
-1.792069
-1.792069
-1.792069
-1.852132
-1.767701
-1.792057
-1.792069
-1.792068
-1.792069
-1.792069
-1.792069
-1.792069
-1.792069
-1.792069
-1.792069
-1.792069
-1.792069
-1.792069
-1.792069
-1.792069
-1.792069
-1.824098
-1.768132
-1.792056
-1.792069
-1.792066
-1.792069
-1.792069
-1.792069
-1.792069
-1.792069
-1.792069
-1.792069
-1.792069
-1.792069
-1.792069
-1.792069
-1.792069
-1.792069
-1.795838
-1.769152
-1.792056
-1.792106
-1.792075
-1.792068
-1.792068
-1.792069
-1.792069
-1.792069
-1.792069
-1.792069
-1.792069
-1.792069
-1.792069
-1.792069
-1.792069
-1.792069
-1.765288
-1.770821
-1.792034
-1.788567
-1.788931
-1.792028
-1.792067
-1.792067
-1.792058
-1.792069
-1.792069
-1.792069
-1.792069
-1.792069
-1.792069
-1.792069
-1.792069
-1.792069
-1.735419
-1.773269
-1.791989
-1.783658
-1.788474
-1.791892
-1.792065
-1.791989
-1.792029
-1.792058
-1.792069
-1.792069
-1.792069
-1.792069
-1.792069
-1.792069
-1.792069
-1.792069
-1.707163
-1.769539
-1.791933
-1.786269
-1.791559
-1.792051
-1.792061
-1.792047
-1.792055
-1.792068
-1.792069
-1.792069
-1.792069
-1.79207
-1.792069
-1.792069
-1.792069
-1.792069
-1.684495
-1.744469
-1.791692
-1.781481
-1.775173
-1.79194
-1.79205
-1.79206
-1.792067
-1.792069
-1.792069
-1.792069
-1.792069
-1.792069
-1.792069
-1.792069
-1.79207
-1.792069
-1.562805
-1.803626
-1.790428
-1.760661
-1.791768
-1.769894
-1.792013
-1.792039
-1.792011
-1.792051
-1.792069
-1.792069
-1.79207
-1.792068
-1.792069
-1.792069
-1.792069
-1.792068
-1.488257
-1.752176
-1.784614
-1.791915
-1.782014
-1.789835
-1.792021
-1.791419
-1.791747
-1.791966
-1.792069
-1.792069
-1.79207
-1.792068
-1.792069
-1.792069
-1.792062
-1.792069
-1.408728
-1.659361
-1.78338
-1.789931
-1.79057
-1.792012
-1.791987
-1.791979
-1.791826
-1.792047
-1.792042
-1.792058
-1.792075
-1.792069
-1.792069
-1.792071
-1.792067
-1.792069
-1.030942
-1.760022
-1.723259
-1.758529
-1.788074
-1.792305
-1.791824
-1.791301
-1.791098
-1.791728
-1.791618
-1.791682
-1.792041
-1.792023
-1.792064
-1.792073
-1.792067
-1.792069
-0.7925267
-1.825486
-1.735667
-1.758432
-1.788013
-1.791889
-1.791224
-1.790292
-1.789471
-1.790506
-1.789882
-1.789523
-1.790582
-1.791001
-1.791638
-1.792014
-1.792067
-1.792069
-0.8273994
-1.809669
-1.655935
-1.754269
-1.79185
-1.79169
-1.790637
-1.791333
-1.788552
-1.789008
-1.787763
-1.786544
-1.7878
-1.788033
-1.78857
-1.79067
-1.791844
-1.792056
-0.6802086
-2.166527
-1.626926
-1.791157
-1.79312
-1.791141
-1.790145
-1.790856
-1.78727
-1.78722
-1.785326
-1.78496
-1.784905
-1.784544
-1.786375
-1.787132
-1.788803
-1.791046
-0.6235359
-1.936488
-1.806957
-1.785799
-1.793845
-1.786269
-1.789513
-1.790151
-1.78616
-1.785096
-1.782428
-1.784914
-1.781703
-1.780648
-1.782848
-1.783314
-1.784853
-1.787183
-0.6666922
-2.005497
-1.637833
-1.788965
-1.793803
-1.796369
-1.788605
-1.7892
-1.784829
-1.782728
-1.780038
-1.78129
-1.777653
-1.781503
-1.778928
-1.779307
-1.780749
-1.784544
-0.8984479
-2.324344
-1.667019
-1.796206
-1.7811
-1.794434
-1.787653
-1.788223
-1.783778
-1.780107
-1.779536
-1.776315
-1.774781
-1.777078
-1.77497
-1.775273
-1.779361
-1.778244
-0.92768
-2.825478
-1.648845
-1.72772
-1.782514
-1.793127
-1.784982
-1.787182
-1.783003
-1.777146
-1.779586
-1.773407
-1.775209
-1.772107
-1.771068
-1.77523
-1.771987
-1.776798
-0.8518366
-3.494416
-1.49444
-1.664459
-1.758716
-1.786372
-1.784888
-1.785961
-1.781497
-1.775281
-1.776151
-1.770722
-1.773738
-1.768642
-1.771582
-1.767007
-1.772813
-1.77082
-0.6098332
-4.340889
-1.806411
-1.492235
-1.745612
-1.772363
-1.785179
-1.784078
-1.779283
-1.777692
-1.771505
-1.774493
-1.767044
-1.769632
-1.764839
-1.769795
-1.764922
-1.769952
-0.130608
-5.008064
-1.744311
-1.560866
-1.719044
-1.764929
-1.783171
-1.78333
-1.779698
-1.779054
-1.771472
-1.772322
-1.768397
-1.7659
-1.765622
-1.762625
-1.764656
-1.763791
-0.265494
-5.70968
-3.055195
-1.329135
-1.56084
-1.745939
-1.785296
-1.782298
-1.775744
-1.775997
-1.77675
-1.767104
-1.768605
-1.765342
-1.762561
-1.761958
-1.762995
-1.762998
-0.3144884
-4.033902
-4.457296
-1.546372
-1.754673
-1.734155
-1.7538
-1.764013
-1.769576
-1.763329
-1.760613
-1.762146
-1.760786
-1.760727
-0.3855513
-1.554221
-1.734453
-1.754005
-1.763034
-1.761812
-1.761678
-1.758403
-1.761995
-1.760416
-0.3613763
-1.670762
-1.745432
-1.764414
-1.763529
-1.760275
-1.75631
-1.757374
-1.750421
-1.780525
-1.760824
-1.759953
-1.757759
-1.756672
-1.746509
-1.754044
-1.758407
-1.757942
-1.756179
-1.877738
-1.744344
-1.75907
-1.75609
-1.755786
-1.73226
-1.754754
-1.759298
-1.756809
-1.755681
-1.770532
-1.763568
-1.759391
-1.756794
-1.755644
-1.764049
-1.762889
-1.760057
-1.757162
-1.756016
-1.710623
-1.762351
-1.757563
-1.757453
-1.75696
-1.834508
-1.733663
-1.762588
-1.758806
-1.757254
-1.757889
-0.3381163
-1.778031
-1.762608
-1.759341
-1.759921
-1.758592
-1.757482
-0.3454818
-1.516738
-1.794175
-1.7551
-1.765437
-1.761408
-1.760994
-1.760282
-1.759721
-0.3670464
-3.35789
-2.944253
-1.666982
-1.754637
-1.766987
-1.76072
-1.755026
-1.762887
-1.760741
-1.759858
-1.761585
-0.2819657
-5.358792
-3.512859
-1.498509
-1.475688
-1.741546
-1.789592
-1.786822
-1.787042
-1.77912
-1.771075
-1.769834
-1.768561
-1.764156
-1.760944
-1.761595
-1.762676
-1.763302
-0.2174587
-6.012346
-2.145001
-1.313502
-1.673805
-1.774256
-1.785899
-1.78294
-1.781759
-1.774967
-1.770052
-1.770473
-1.767751
-1.765002
-1.764349
-1.765443
-1.76419
-1.766283
-0.3494354
-5.563888
-1.68237
-1.514992
-1.711976
-1.753065
-1.785367
-1.783837
-1.778427
-1.779567
-1.774131
-1.774257
-1.768131
-1.76836
-1.766953
-1.766025
-1.767838
-1.767987
-0.7986873
-4.068741
-1.709069
-1.43265
-1.770717
-1.786524
-1.784958
-1.785436
-1.780657
-1.776807
-1.776287
-1.772692
-1.770864
-1.769936
-1.769365
-1.770722
-1.769417
-1.772096
-0.9853494
-3.390232
-1.479165
-1.708709
-1.727787
-1.79141
-1.786078
-1.786343
-1.781934
-1.776018
-1.777564
-1.773174
-1.773462
-1.77258
-1.773558
-1.771605
-1.774192
-1.774733
-1.091981
-2.790041
-1.659192
-1.752006
-1.789176
-1.794371
-1.786751
-1.78733
-1.782594
-1.779699
-1.779654
-1.776665
-1.775238
-1.77559
-1.772607
-1.776038
-1.776445
-1.779244
-1.095212
-2.443009
-1.766598
-1.788166
-1.775788
-1.794584
-1.78783
-1.788402
-1.783707
-1.781342
-1.783099
-1.779897
-1.77752
-1.780274
-1.778681
-1.780294
-1.781277
-1.783504
-0.7825715
-2.119204
-1.693209
-1.793526
-1.796342
-1.795128
-1.788422
-1.789341
-1.784981
-1.783822
-1.782551
-1.783171
-1.780982
-1.779587
-1.781945
-1.780956
-1.784921
-1.786491
-0.7773206
-2.204857
-1.952086
-1.765714
-1.793858
-1.780867
-1.789518
-1.790194
-1.786284
-1.786472
-1.782763
-1.786066
-1.784285
-1.784197
-1.785801
-1.786811
-1.788915
-1.790695
-0.7740635
-2.352232
-1.531394
-1.790664
-1.790842
-1.788958
-1.790119
-1.79083
-1.787674
-1.788387
-1.785346
-1.78608
-1.787289
-1.787451
-1.788
-1.790186
-1.791669
-1.792164
-0.9218175
-1.843008
-1.680165
-1.786208
-1.791095
-1.790378
-1.790563
-1.789761
-1.789096
-1.790051
-1.789596
-1.789904
-1.79007
-1.790617
-1.791483
-1.792228
-1.792012
-1.792084