/*--------------------------------*- C++ -*----------------------------------*\
| =========                 |                                                 |
| \\      /  F ield         | OpenFOAM: The Open Source CFD Toolbox           |
|  \\    /   O peration     | Version:  2206                                  |
|   \\  /    A nd           | Website:  www.openfoam.com                      |
|    \\/     M anipulation  |                                                 |
\*---------------------------------------------------------------------------*/
FoamFile
{
    version     2.0;
    format      ascii;
    arch        "LSB;label=32;scalar=64";
    class       volScalarField;
    location    "1.4";
    object      ddt0(k.b);
}
// * * * * * * * * * * * * * * * * * * * * * * * * * * * * * * * * * * * * * //

dimensions      [0 2 -3 0 0 0 0];

internalField   nonuniform List<scalar> 
13078
(
2.422069e-13
-3.96829e-10
-3.988657e-10
-4.01039e-10
-4.03893e-10
-4.0714e-10
-4.108964e-10
-3.803797e-13
-3.732575e-10
-3.983889e-10
-4.009471e-10
-4.038123e-10
-4.070698e-10
-4.108188e-10
-2.894117e-13
-3.731337e-10
-3.982624e-10
-4.008132e-10
-4.037185e-10
-4.069881e-10
-4.107349e-10
-3.414565e-13
-3.733018e-10
-3.981979e-10
-4.007184e-10
-4.036311e-10
-4.06906e-10
-4.106494e-10
-3.76377e-13
-3.73344e-10
-3.981655e-10
-4.006849e-10
-4.035572e-10
-4.06827e-10
-4.105653e-10
-4.027458e-13
-3.733656e-10
-3.98151e-10
-4.006657e-10
-4.035355e-10
-4.06757e-10
-4.104831e-10
-4.29483e-13
-3.733502e-10
-3.981379e-10
-4.006421e-10
-4.035205e-10
-4.06739e-10
-4.104085e-10
-4.578054e-13
-3.733119e-10
-3.98125e-10
-4.006261e-10
-4.035102e-10
-4.067273e-10
-4.103911e-10
-4.885165e-13
-3.73275e-10
-3.981224e-10
-4.006204e-10
-4.03503e-10
-4.067173e-10
-4.103789e-10
-5.224716e-13
-3.732241e-10
-3.981206e-10
-4.00616e-10
-4.034965e-10
-4.067085e-10
-4.103679e-10
-5.605542e-13
-3.731636e-10
-3.981186e-10
-4.006118e-10
-4.034903e-10
-4.067002e-10
-4.103569e-10
-6.037837e-13
-3.730943e-10
-3.981159e-10
-4.006077e-10
-4.034845e-10
-4.06692e-10
-4.103465e-10
-6.533599e-13
-3.730182e-10
-3.981129e-10
-4.006031e-10
-4.034789e-10
-4.066841e-10
-4.103359e-10
-7.107812e-13
-3.72935e-10
-3.981094e-10
-4.005973e-10
-4.034713e-10
-4.066755e-10
-4.103246e-10
-7.779008e-13
-3.728452e-10
-3.981052e-10
-4.005774e-10
-4.034422e-10
-4.066645e-10
-4.103134e-10
-8.570144e-13
-3.727489e-10
-3.981e-10
-4.005523e-10
-4.03418e-10
-4.066541e-10
-4.103016e-10
-9.509695e-13
-3.72647e-10
-3.980956e-10
-4.005442e-10
-4.034088e-10
-4.066445e-10
-4.102895e-10
-1.06338e-12
-3.725383e-10
-3.98091e-10
-4.00537e-10
-4.034001e-10
-4.066346e-10
-4.10277e-10
-1.198737e-12
-3.724226e-10
-3.98086e-10
-4.005296e-10
-4.033901e-10
-4.066219e-10
-4.102637e-10
-1.362811e-12
-3.723e-10
-3.980804e-10
-4.005202e-10
-4.033575e-10
-4.065753e-10
-4.102468e-10
-1.562799e-12
-3.721701e-10
-3.980747e-10
-4.005098e-10
-4.033172e-10
-4.065368e-10
-4.102297e-10
-1.808037e-12
-3.720325e-10
-3.980691e-10
-4.005008e-10
-4.033029e-10
-4.065216e-10
-4.102144e-10
-2.110106e-12
-3.718865e-10
-3.980626e-10
-4.004908e-10
-4.032904e-10
-4.065047e-10
-4.101951e-10
-2.483459e-12
-3.717326e-10
-3.98056e-10
-4.004803e-10
-4.032746e-10
-4.064558e-10
-4.101248e-10
-2.945116e-12
-3.715698e-10
-3.980494e-10
-4.00469e-10
-4.032574e-10
-4.063954e-10
-4.100665e-10
-3.508813e-12
-3.71398e-10
-3.980418e-10
-4.004564e-10
-4.03241e-10
-4.063718e-10
-4.10041e-10
-4.172789e-12
-3.712199e-10
-3.980339e-10
-4.004426e-10
-4.032234e-10
-4.063497e-10
-4.100133e-10
-4.954719e-12
-3.710188e-10
-3.980251e-10
-4.004276e-10
-4.032037e-10
-4.063231e-10
-4.099374e-10
-5.87522e-12
-3.708352e-10
-3.980157e-10
-4.004109e-10
-4.031818e-10
-4.062925e-10
-4.098438e-10
-6.886035e-12
-3.704182e-10
-3.980013e-10
-4.003918e-10
-4.031575e-10
-4.062627e-10
-4.098023e-10
-8.006266e-12
-3.698658e-10
-3.979898e-10
-4.0037e-10
-4.031299e-10
-4.062289e-10
-4.097578e-10
-9.400869e-12
-3.691036e-10
-3.979648e-10
-4.003418e-10
-4.030986e-10
-4.061903e-10
-4.097063e-10
-1.103115e-11
-3.681312e-10
-3.979165e-10
-4.002808e-10
-4.030593e-10
-4.061458e-10
-4.096534e-10
-1.292407e-11
-3.677407e-10
-3.978746e-10
-4.002253e-10
-4.03013e-10
-4.06094e-10
-4.095929e-10
-1.50951e-11
-3.673243e-10
-3.978444e-10
-4.001568e-10
-4.02911e-10
-4.060265e-10
-4.095225e-10
-1.761268e-11
-3.66851e-10
-3.97807e-10
-4.000728e-10
-4.02785e-10
-4.05882e-10
-4.094345e-10
-2.061659e-11
-3.663195e-10
-3.977617e-10
-4.000038e-10
-4.026629e-10
-4.057462e-10
-4.093272e-10
-2.419455e-11
-3.657327e-10
-3.977037e-10
-3.999314e-10
-4.025665e-10
-4.055855e-10
-4.091005e-10
-2.844209e-11
-3.65137e-10
-3.976285e-10
-3.998425e-10
-4.02445e-10
-4.053783e-10
-4.088487e-10
-3.309469e-11
-3.642523e-10
-3.975132e-10
-3.996967e-10
-4.022345e-10
-4.050927e-10
-4.084395e-10
-3.83265e-11
-3.623021e-10
-3.972658e-10
-3.993917e-10
-4.0181e-10
-4.045608e-10
-4.077414e-10
-4.590229e-11
-3.603837e-10
-3.967804e-10
-3.987239e-10
-4.010856e-10
-4.037134e-10
-4.068723e-10
-5.518476e-11
-3.590973e-10
-3.960059e-10
-3.977973e-10
-4.000137e-10
-4.02821e-10
-4.06011e-10
-6.615948e-11
-3.575178e-10
-3.950306e-10
-3.968485e-10
-3.991372e-10
-4.018402e-10
-4.055014e-10
-7.740783e-11
-3.553667e-10
-3.940982e-10
-3.960706e-10
-3.983821e-10
-4.011986e-10
-4.056026e-10
-8.190389e-11
-3.518904e-10
-3.932599e-10
-3.951742e-10
-3.975524e-10
-4.008656e-10
-4.061364e-10
-8.215438e-11
-3.484209e-10
-3.924953e-10
-3.942843e-10
-3.96574e-10
-4.006957e-10
-4.05788e-10
-7.893566e-11
-3.459822e-10
-3.915492e-10
-3.933503e-10
-3.959905e-10
-4.002267e-10
-4.047781e-10
-7.204851e-11
-3.438716e-10
-3.906487e-10
-3.92446e-10
-3.955943e-10
-3.996387e-10
-4.035287e-10
-6.198359e-11
-3.420379e-10
-3.899014e-10
-3.919292e-10
-3.952335e-10
-3.985218e-10
-4.019082e-10
-4.955818e-11
-3.399681e-10
-3.893572e-10
-3.916805e-10
-3.948479e-10
-3.974681e-10
-4.002524e-10
-3.551136e-11
-3.367692e-10
-3.890789e-10
-3.913966e-10
-3.944059e-10
-3.967489e-10
-3.991561e-10
-2.343855e-11
-3.354978e-10
-3.888273e-10
-3.909203e-10
-3.939894e-10
-3.964784e-10
-3.981606e-10
-1.451318e-11
-3.342203e-10
-3.883575e-10
-3.903749e-10
-3.936095e-10
-3.959676e-10
-3.975081e-10
-8.790966e-12
-3.333183e-10
-3.880475e-10
-3.900023e-10
-3.933281e-10
-3.956287e-10
-3.972775e-10
-5.187364e-12
-3.334093e-10
-3.879296e-10
-3.897613e-10
-3.930687e-10
-3.953588e-10
-3.971134e-10
-5.079081e-12
-3.330286e-10
-3.877793e-10
-3.896273e-10
-3.929383e-10
-3.952173e-10
-3.969322e-10
-8.601261e-12
-3.324276e-10
-3.877996e-10
-3.898095e-10
-3.931141e-10
-3.953938e-10
-3.970355e-10
-1.448125e-11
-3.328918e-10
-3.87993e-10
-3.900861e-10
-3.932617e-10
-3.9556e-10
-3.970614e-10
-2.34161e-11
-3.336343e-10
-3.881762e-10
-3.903275e-10
-3.932674e-10
-3.95616e-10
-3.972648e-10
-3.532421e-11
-3.345745e-10
-3.881611e-10
-3.904346e-10
-3.933396e-10
-3.955978e-10
-3.978637e-10
-4.894287e-11
-3.378633e-10
-3.885552e-10
-3.908625e-10
-3.938028e-10
-3.961973e-10
-3.986982e-10
-6.085414e-11
-3.400186e-10
-3.891079e-10
-3.909017e-10
-3.938623e-10
-3.968682e-10
-3.999351e-10
-7.035487e-11
-3.418851e-10
-3.898871e-10
-3.913579e-10
-3.940016e-10
-3.97683e-10
-4.013706e-10
-7.666466e-11
-3.44163e-10
-3.909007e-10
-3.923772e-10
-3.944248e-10
-3.982818e-10
-4.025069e-10
-7.925238e-11
-3.46892e-10
-3.920378e-10
-3.935987e-10
-3.953238e-10
-3.986635e-10
-4.033015e-10
-7.674334e-11
-3.506943e-10
-3.930043e-10
-3.947151e-10
-3.966135e-10
-3.991475e-10
-4.036109e-10
-6.499436e-11
-3.54419e-10
-3.939331e-10
-3.958054e-10
-3.977484e-10
-4.000573e-10
-4.035248e-10
-5.341139e-11
-3.568646e-10
-3.948753e-10
-3.967174e-10
-3.988162e-10
-4.011328e-10
-4.041941e-10
-4.365335e-11
-3.586965e-10
-3.958692e-10
-3.976815e-10
-3.998509e-10
-4.023986e-10
-4.052345e-10
-3.58655e-11
-3.601707e-10
-3.966887e-10
-3.986136e-10
-4.009379e-10
-4.03548e-10
-4.064894e-10
-2.980305e-11
-3.619708e-10
-3.972027e-10
-3.993063e-10
-4.017052e-10
-4.044627e-10
-4.076538e-10
-2.550931e-11
-3.636856e-10
-3.974702e-10
-3.996455e-10
-4.021791e-10
-4.05046e-10
-4.0839e-10
-2.17364e-11
-3.646591e-10
-3.975995e-10
-3.998103e-10
-4.024242e-10
-4.053527e-10
-4.088205e-10
-1.837262e-11
-3.653675e-10
-3.976878e-10
-3.999105e-10
-4.025566e-10
-4.055722e-10
-4.090863e-10
-1.55495e-11
-3.662048e-10
-3.977587e-10
-3.999983e-10
-4.026782e-10
-4.057572e-10
-4.093247e-10
-1.319154e-11
-3.668963e-10
-3.978141e-10
-4.000689e-10
-4.027975e-10
-4.059164e-10
-4.094369e-10
-1.127368e-11
-3.674784e-10
-3.978543e-10
-4.001544e-10
-4.029121e-10
-4.060292e-10
-4.095252e-10
-9.586839e-12
-3.67946e-10
-3.978877e-10
-4.002247e-10
-4.030138e-10
-4.060963e-10
-4.095978e-10
-8.108516e-12
-3.683288e-10
-3.979303e-10
-4.002812e-10
-4.030609e-10
-4.061494e-10
-4.096596e-10
-6.846981e-12
-3.69294e-10
-3.979782e-10
-4.003429e-10
-4.031007e-10
-4.061942e-10
-4.09713e-10
-5.788437e-12
-3.700455e-10
-3.980041e-10
-4.003713e-10
-4.031324e-10
-4.062332e-10
-4.097643e-10
-4.985526e-12
-3.705758e-10
-3.980151e-10
-4.003934e-10
-4.031601e-10
-4.062672e-10
-4.098085e-10
-4.2635e-12
-3.7099e-10
-3.980289e-10
-4.004125e-10
-4.031845e-10
-4.062966e-10
-4.098493e-10
-3.603936e-12
-3.711612e-10
-3.980374e-10
-4.004291e-10
-4.032062e-10
-4.063266e-10
-4.099421e-10
-3.056382e-12
-3.713507e-10
-3.980452e-10
-4.004442e-10
-4.032254e-10
-4.063527e-10
-4.100181e-10
-2.601645e-12
-3.71517e-10
-3.980521e-10
-4.004578e-10
-4.032428e-10
-4.063747e-10
-4.100452e-10
-2.229301e-12
-3.716777e-10
-3.980589e-10
-4.004701e-10
-4.03259e-10
-4.063982e-10
-4.100704e-10
-1.927406e-12
-3.7183e-10
-3.980645e-10
-4.004812e-10
-4.032761e-10
-4.06458e-10
-4.101279e-10
-1.685933e-12
-3.719741e-10
-3.980702e-10
-4.004917e-10
-4.032917e-10
-4.065067e-10
-4.10198e-10
-1.492296e-12
-3.721112e-10
-3.980759e-10
-4.005017e-10
-4.033043e-10
-4.065234e-10
-4.102168e-10
-1.336952e-12
-3.722405e-10
-3.980807e-10
-4.005107e-10
-4.033185e-10
-4.065386e-10
-4.102321e-10
-1.213326e-12
-3.723631e-10
-3.980857e-10
-4.00521e-10
-4.033585e-10
-4.065769e-10
-4.102492e-10
-1.117057e-12
-3.724791e-10
-3.980907e-10
-4.005303e-10
-4.033909e-10
-4.066233e-10
-4.102659e-10
-1.04178e-12
-3.725889e-10
-3.980953e-10
-4.005374e-10
-4.034008e-10
-4.066358e-10
-4.102787e-10
-9.773702e-13
-3.726925e-10
-3.980993e-10
-4.005446e-10
-4.034095e-10
-4.066455e-10
-4.10291e-10
-9.050054e-13
-3.727902e-10
-3.981033e-10
-4.005527e-10
-4.034186e-10
-4.066551e-10
-4.103031e-10
-8.263333e-13
-3.728829e-10
-3.981083e-10
-4.005778e-10
-4.034427e-10
-4.066654e-10
-4.103148e-10
-7.549235e-13
-3.729698e-10
-3.981123e-10
-4.005978e-10
-4.034719e-10
-4.066762e-10
-4.103257e-10
-6.924958e-13
-3.730509e-10
-3.981157e-10
-4.006037e-10
-4.034794e-10
-4.066847e-10
-4.103366e-10
-6.380608e-13
-3.731257e-10
-3.981185e-10
-4.006083e-10
-4.03485e-10
-4.066924e-10
-4.103468e-10
-5.903528e-13
-3.731949e-10
-3.981211e-10
-4.006125e-10
-4.034906e-10
-4.067001e-10
-4.103568e-10
-5.482282e-13
-3.732574e-10
-3.981232e-10
-4.006165e-10
-4.034963e-10
-4.067078e-10
-4.103671e-10
-5.106757e-13
-3.733122e-10
-3.981249e-10
-4.006205e-10
-4.035018e-10
-4.067156e-10
-4.103773e-10
-4.768174e-13
-3.733557e-10
-3.981272e-10
-4.006251e-10
-4.035076e-10
-4.067242e-10
-4.103882e-10
-4.458238e-13
-3.734048e-10
-3.981386e-10
-4.00639e-10
-4.035156e-10
-4.067337e-10
-4.104039e-10
-4.170101e-13
-3.734359e-10
-3.98148e-10
-4.006581e-10
-4.035265e-10
-4.067487e-10
-4.104765e-10
-3.895842e-13
-3.734327e-10
-3.981535e-10
-4.006689e-10
-4.03542e-10
-4.068148e-10
-4.105563e-10
-3.622415e-13
-3.734109e-10
-3.981672e-10
-4.006888e-10
-4.036072e-10
-4.068891e-10
-4.106383e-10
-3.258155e-13
-3.73336e-10
-3.98198e-10
-4.007622e-10
-4.036846e-10
-4.069675e-10
-4.107227e-10
-2.694833e-13
-3.733753e-10
-3.983043e-10
-4.008599e-10
-4.03772e-10
-4.070496e-10
-4.108083e-10
-3.656836e-13
-3.748583e-10
-3.984323e-10
-4.010085e-10
-4.038743e-10
-4.071354e-10
-4.108947e-10
-4.153461e-10
-4.209921e-10
-4.286202e-10
-4.359973e-10
-4.493383e-10
-4.698046e-10
2.157376e-10
-4.152537e-10
-4.208704e-10
-4.284576e-10
-4.357983e-10
-4.490912e-10
-4.7035e-10
-3.025763e-10
-4.151583e-10
-4.207493e-10
-4.283004e-10
-4.38371e-10
-4.48861e-10
-4.699968e-10
-3.00566e-10
-4.150622e-10
-4.206278e-10
-4.281367e-10
-4.354028e-10
-4.486037e-10
-4.69645e-10
-3.011767e-10
-4.149687e-10
-4.205065e-10
-4.279784e-10
-4.351998e-10
-4.483598e-10
-4.692947e-10
-3.026683e-10
-4.148756e-10
-4.203854e-10
-4.278183e-10
-4.350023e-10
-4.481178e-10
-4.689466e-10
-3.045975e-10
-4.147841e-10
-4.202649e-10
-4.276588e-10
-4.348106e-10
-4.480503e-10
-4.686023e-10
-3.069338e-10
-4.146996e-10
-4.201451e-10
-4.275004e-10
-4.346227e-10
-4.479872e-10
-4.682622e-10
-3.096264e-10
-4.146798e-10
-4.200338e-10
-4.273494e-10
-4.344301e-10
-4.477949e-10
-4.679543e-10
-3.126761e-10
-4.146652e-10
-4.200067e-10
-4.272079e-10
-4.342382e-10
-4.476037e-10
-4.67648e-10
-3.161069e-10
-4.146514e-10
-4.199868e-10
-4.271715e-10
-4.340518e-10
-4.47413e-10
-4.673436e-10
-3.201696e-10
-4.146372e-10
-4.199659e-10
-4.271434e-10
-4.340109e-10
-4.472213e-10
-4.670395e-10
-3.254031e-10
-4.146228e-10
-4.199448e-10
-4.271143e-10
-4.339747e-10
-4.471876e-10
-4.667296e-10
-3.331102e-10
-4.146078e-10
-4.199233e-10
-4.270841e-10
-4.339368e-10
-4.471495e-10
-4.666558e-10
-3.613656e-10
-4.145926e-10
-4.199007e-10
-4.270529e-10
-4.338972e-10
-4.471095e-10
-4.665907e-10
-4.661834e-10
-4.145767e-10
-4.198773e-10
-4.270206e-10
-4.338565e-10
-4.470682e-10
-4.665343e-10
-6.182059e-10
-4.145605e-10
-4.198529e-10
-4.269874e-10
-4.33814e-10
-4.4701e-10
-4.664872e-10
-6.272549e-10
-4.145436e-10
-4.198284e-10
-4.269524e-10
-4.337502e-10
-4.464298e-10
-4.664377e-10
-6.220777e-10
-4.14526e-10
-4.198041e-10
-4.269168e-10
-4.337042e-10
-4.463569e-10
-4.66382e-10
-6.166272e-10
-4.145073e-10
-4.197788e-10
-4.268793e-10
-4.336562e-10
-4.462955e-10
-4.66325e-10
-6.065597e-10
-4.144884e-10
-4.197522e-10
-4.268405e-10
-4.336065e-10
-4.462319e-10
-4.662666e-10
-5.912648e-10
-4.14468e-10
-4.197243e-10
-4.268004e-10
-4.335545e-10
-4.461661e-10
-4.661938e-10
-5.791424e-10
-4.14447e-10
-4.19695e-10
-4.267564e-10
-4.335012e-10
-4.460865e-10
-4.661135e-10
-5.671371e-10
-4.144199e-10
-4.196644e-10
-4.267164e-10
-4.360042e-10
-4.4556e-10
-4.659756e-10
-5.581631e-10
-4.143921e-10
-4.19632e-10
-4.266636e-10
-4.333992e-10
-4.452733e-10
-4.658654e-10
-5.515999e-10
-4.143668e-10
-4.195987e-10
-4.26617e-10
-4.333221e-10
-4.451774e-10
-4.657637e-10
-5.449673e-10
-4.143344e-10
-4.195617e-10
-4.265651e-10
-4.332567e-10
-4.450771e-10
-4.656366e-10
-5.39359e-10
-4.142257e-10
-4.195199e-10
-4.265086e-10
-4.331867e-10
-4.449396e-10
-4.644828e-10
-5.329645e-10
-4.141373e-10
-4.180658e-10
-4.245549e-10
-4.331017e-10
-4.448156e-10
-4.640475e-10
-5.288939e-10
-4.140916e-10
-4.180142e-10
-4.244901e-10
-4.330254e-10
-4.447033e-10
-4.638852e-10
-5.215653e-10
-4.139348e-10
-4.178313e-10
-4.244301e-10
-4.329425e-10
-4.445849e-10
-4.627601e-10
-6.017918e-10
-4.138169e-10
-4.176783e-10
-4.243644e-10
-4.328528e-10
-4.444568e-10
-4.616947e-10
-5.526718e-10
-4.137429e-10
-4.173991e-10
-4.242754e-10
-4.327552e-10
-4.443203e-10
-4.61556e-10
-5.168342e-10
-4.136709e-10
-4.173009e-10
-4.23986e-10
-4.326492e-10
-4.441728e-10
-4.613161e-10
-6.176036e-10
-4.135882e-10
-4.171936e-10
-4.236388e-10
-4.325257e-10
-4.440138e-10
-4.613118e-10
-5.026622e-10
-4.134917e-10
-4.170808e-10
-4.232573e-10
-4.323578e-10
-4.438452e-10
-4.609971e-10
-4.493573e-10
-4.133799e-10
-4.169485e-10
-4.230979e-10
-4.317337e-10
-4.436541e-10
-4.607971e-10
-4.731126e-10
-4.132299e-10
-4.167872e-10
-4.229351e-10
-4.312571e-10
-4.433123e-10
-4.607385e-10
-4.376684e-10
-4.130115e-10
-4.165599e-10
-4.227394e-10
-4.307679e-10
-4.429081e-10
-4.613606e-10
-4.646572e-10
-4.125331e-10
-4.161293e-10
-4.224815e-10
-4.308338e-10
-4.432294e-10
-4.627594e-10
-4.126938e-10
-4.118371e-10
-4.155273e-10
-4.223265e-10
-4.322099e-10
-4.461588e-10
-4.634886e-10
-4.941412e-10
-4.109327e-10
-4.148787e-10
-4.229938e-10
-4.35588e-10
-4.484101e-10
-4.608725e-10
-5.403493e-10
-4.106591e-10
-4.152735e-10
-4.252074e-10
-4.371219e-10
-4.480973e-10
-4.581761e-10
-6.802626e-10
-4.116695e-10
-4.170634e-10
-4.275178e-10
-4.381958e-10
-4.482966e-10
-4.587906e-10
-5.359894e-10
-4.126102e-10
-4.183262e-10
-4.280123e-10
-4.390033e-10
-4.458429e-10
-4.590807e-10
-5.942086e-10
-4.125858e-10
-4.188863e-10
-4.290753e-10
-4.375123e-10
-4.44796e-10
-4.570101e-10
-5.737607e-10
-4.121651e-10
-4.18684e-10
-4.286154e-10
-4.367859e-10
-4.43562e-10
-4.557333e-10
-8.136486e-10
-4.111218e-10
-4.181219e-10
-4.271518e-10
-4.34563e-10
-4.422713e-10
-4.533039e-10
-5.294572e-10
-4.089539e-10
-4.163242e-10
-4.249676e-10
-4.32148e-10
-4.393242e-10
-4.510608e-10
-4.733895e-10
-4.072481e-10
-4.149359e-10
-4.239751e-10
-4.303421e-10
-4.377535e-10
-4.466647e-10
-4.689642e-10
-4.058127e-10
-4.130855e-10
-4.21767e-10
-4.283184e-10
-4.35577e-10
-4.442583e-10
-4.524177e-10
-4.044051e-10
-4.117296e-10
-4.196071e-10
-4.238744e-10
-4.314073e-10
-4.423087e-10
-4.591411e-10
-4.025742e-10
-4.095065e-10
-4.171631e-10
-4.21549e-10
-4.287343e-10
-4.381234e-10
-4.510278e-10
-4.016199e-10
-4.078961e-10
-4.150009e-10
-4.208043e-10
-4.248256e-10
-4.331276e-10
-4.484821e-10
-4.012099e-10
-4.068264e-10
-4.148145e-10
-4.194447e-10
-4.237076e-10
-4.267511e-10
-4.33952e-10
-4.010989e-10
-4.063232e-10
-4.142421e-10
-4.189998e-10
-4.208639e-10
-4.216173e-10
-4.008875e-10
-4.057409e-10
-4.135821e-10
-4.188495e-10
-4.203114e-10
-4.216671e-10
-4.008627e-10
-4.051926e-10
-4.136065e-10
-4.181224e-10
-4.202803e-10
-4.203902e-10
-4.010594e-10
-4.052502e-10
-4.130614e-10
-4.173026e-10
-4.221409e-10
-4.284671e-10
-4.363589e-10
-4.016445e-10
-4.056078e-10
-4.139773e-10
-4.1832e-10
-4.236903e-10
-4.3458e-10
-4.467844e-10
-4.02782e-10
-4.072046e-10
-4.161653e-10
-4.215872e-10
-4.268643e-10
-4.367842e-10
-4.41052e-10
-4.038076e-10
-4.083789e-10
-4.179906e-10
-4.240837e-10
-4.320041e-10
-4.408226e-10
-4.552739e-10
-4.049936e-10
-4.096469e-10
-4.217594e-10
-4.273901e-10
-4.339648e-10
-4.445781e-10
-4.86691e-10
-4.065664e-10
-4.119888e-10
-4.219272e-10
-4.286785e-10
-4.372541e-10
-4.479304e-10
-4.795844e-10
-4.083799e-10
-4.134509e-10
-4.232381e-10
-4.30948e-10
-4.399823e-10
-4.482939e-10
-5.252668e-10
-4.093034e-10
-4.151879e-10
-4.241001e-10
-4.334012e-10
-4.397101e-10
-4.506565e-10
-6.358223e-10
-4.09805e-10
-4.154718e-10
-4.250241e-10
-4.337661e-10
-4.421615e-10
-4.505672e-10
-6.567804e-10
-4.097957e-10
-4.162925e-10
-4.246404e-10
-4.344617e-10
-4.418047e-10
-4.538229e-10
-6.307477e-10
-4.090695e-10
-4.151738e-10
-4.242058e-10
-4.339187e-10
-4.430609e-10
-4.549457e-10
-7.386661e-10
-4.09199e-10
-4.136541e-10
-4.231562e-10
-4.33173e-10
-4.437658e-10
-4.537003e-10
-5.291163e-10
-4.101892e-10
-4.135605e-10
-4.209626e-10
-4.326687e-10
-4.44379e-10
-4.565386e-10
-6.769086e-10
-4.115584e-10
-4.145603e-10
-4.208948e-10
-4.309432e-10
-4.442357e-10
-4.603718e-10
-5.515106e-10
-4.124738e-10
-4.159432e-10
-4.218676e-10
-4.300596e-10
-4.422653e-10
-4.618146e-10
-5.467116e-10
-4.129859e-10
-4.164104e-10
-4.225629e-10
-4.30568e-10
-4.423469e-10
-4.614042e-10
-4.666901e-10
-4.132192e-10
-4.16674e-10
-4.228326e-10
-4.309335e-10
-4.433303e-10
-4.611952e-10
-4.992067e-10
-4.133782e-10
-4.168554e-10
-4.230212e-10
-4.314906e-10
-4.435673e-10
-4.608655e-10
-4.91472e-10
-4.134953e-10
-4.170056e-10
-4.231878e-10
-4.320217e-10
-4.43816e-10
-4.610404e-10
-4.953943e-10
-4.135949e-10
-4.17134e-10
-4.234378e-10
-4.32482e-10
-4.439851e-10
-4.612804e-10
-5.057652e-10
-4.136795e-10
-4.172489e-10
-4.23812e-10
-4.326221e-10
-4.441443e-10
-4.615606e-10
-4.88296e-10
-4.137522e-10
-4.173354e-10
-4.242398e-10
-4.327312e-10
-4.442921e-10
-4.615268e-10
-6.425965e-10
-4.138264e-10
-4.175443e-10
-4.243381e-10
-4.328307e-10
-4.444284e-10
-4.616819e-10
-6.463232e-10
-4.139434e-10
-4.177189e-10
-4.244143e-10
-4.329216e-10
-4.445555e-10
-4.619695e-10
-6.295999e-10
-4.141002e-10
-4.179801e-10
-4.244756e-10
-4.330052e-10
-4.446756e-10
-4.637232e-10
-4.662545e-10
-4.14145e-10
-4.180286e-10
-4.245335e-10
-4.33083e-10
-4.44787e-10
-4.640185e-10
-5.289939e-10
-4.142324e-10
-4.195293e-10
-4.265212e-10
-4.331569e-10
-4.448978e-10
-4.641783e-10
-5.324115e-10
-4.143406e-10
-4.195704e-10
-4.265765e-10
-4.332262e-10
-4.450364e-10
-4.65234e-10
-5.379794e-10
-4.143726e-10
-4.196063e-10
-4.266274e-10
-4.332929e-10
-4.451488e-10
-4.657498e-10
-5.439673e-10
-4.143971e-10
-4.196391e-10
-4.266754e-10
-4.333563e-10
-4.452452e-10
-4.658528e-10
-5.503278e-10
-4.144244e-10
-4.196708e-10
-4.267217e-10
-4.334175e-10
-4.453487e-10
-4.659506e-10
-5.56402e-10
-4.144509e-10
-4.197006e-10
-4.267652e-10
-4.334761e-10
-4.459166e-10
-4.660844e-10
-5.653068e-10
-4.144715e-10
-4.197292e-10
-4.26807e-10
-4.335318e-10
-4.461465e-10
-4.661878e-10
-5.732284e-10
-4.144914e-10
-4.197569e-10
-4.268471e-10
-4.335847e-10
-4.462128e-10
-4.662624e-10
-5.838776e-10
-4.145104e-10
-4.19783e-10
-4.268853e-10
-4.336359e-10
-4.462773e-10
-4.66331e-10
-5.950127e-10
-4.145289e-10
-4.19808e-10
-4.269224e-10
-4.336843e-10
-4.463384e-10
-4.663915e-10
-6.05836e-10
-4.145461e-10
-4.19832e-10
-4.269575e-10
-4.337305e-10
-4.46397e-10
-4.664448e-10
-6.153026e-10
-4.145628e-10
-4.198562e-10
-4.26992e-10
-4.337876e-10
-4.466959e-10
-4.664967e-10
-6.186355e-10
-4.145787e-10
-4.198802e-10
-4.270248e-10
-4.338389e-10
-4.470567e-10
-4.665451e-10
-6.156103e-10
-4.145943e-10
-4.199031e-10
-4.270566e-10
-4.338803e-10
-4.47097e-10
-4.665929e-10
-5.957499e-10
-4.146092e-10
-4.199254e-10
-4.270873e-10
-4.339203e-10
-4.471362e-10
-4.666333e-10
-4.902731e-10
-4.146238e-10
-4.199465e-10
-4.271169e-10
-4.339587e-10
-4.47174e-10
-4.666986e-10
-3.490959e-10
-4.146377e-10
-4.199671e-10
-4.271455e-10
-4.339962e-10
-4.472116e-10
-4.669012e-10
-3.431787e-10
-4.146514e-10
-4.199875e-10
-4.271731e-10
-4.340319e-10
-4.47324e-10
-4.672072e-10
-3.303972e-10
-4.146648e-10
-4.20007e-10
-4.272091e-10
-4.341456e-10
-4.475132e-10
-4.675104e-10
-3.235187e-10
-4.146786e-10
-4.200334e-10
-4.2735e-10
-4.34337e-10
-4.477039e-10
-4.678141e-10
-3.188058e-10
-4.146974e-10
-4.201437e-10
-4.275001e-10
-4.3453e-10
-4.478947e-10
-4.6812e-10
-3.148977e-10
-4.147806e-10
-4.202625e-10
-4.276575e-10
-4.347237e-10
-4.480785e-10
-4.684416e-10
-3.117429e-10
-4.148708e-10
-4.203821e-10
-4.278163e-10
-4.34908e-10
-4.480075e-10
-4.687832e-10
-3.086825e-10
-4.149625e-10
-4.205025e-10
-4.279758e-10
-4.351043e-10
-4.482412e-10
-4.691278e-10
-3.061359e-10
-4.150552e-10
-4.206237e-10
-4.281361e-10
-4.35301e-10
-4.484829e-10
-4.694754e-10
-3.039649e-10
-4.151513e-10
-4.207459e-10
-4.282969e-10
-4.35499e-10
-4.487258e-10
-4.698247e-10
-3.023421e-10
-4.152482e-10
-4.208678e-10
-4.28458e-10
-4.356965e-10
-4.489699e-10
-4.701753e-10
-3.016028e-10
-4.153454e-10
-4.209917e-10
-4.286195e-10
-4.358946e-10
-4.492146e-10
-4.705126e-10
-2.028851e-10
-2.096805e-07
-1.896653e-07
-1.882238e-07
-1.88222e-07
-1.88222e-07
-1.88222e-07
-1.88222e-07
-1.88222e-07
-1.88222e-07
-1.88222e-07
-1.88222e-07
-1.88222e-07
-1.88222e-07
-1.88222e-07
-1.88222e-07
-1.88222e-07
-1.88222e-07
-1.88222e-07
-2.120279e-07
-1.886537e-07
-1.882227e-07
-1.882223e-07
-1.882223e-07
-1.882223e-07
-1.882223e-07
-1.882223e-07
-1.882223e-07
-1.882223e-07
-1.882223e-07
-1.882223e-07
-1.882223e-07
-1.882223e-07
-1.882223e-07
-1.882223e-07
-1.882223e-07
-1.882223e-07
-2.14968e-07
-1.888027e-07
-1.882227e-07
-1.882223e-07
-1.882223e-07
-1.882223e-07
-1.882223e-07
-1.882223e-07
-1.882223e-07
-1.882223e-07
-1.882223e-07
-1.882223e-07
-1.882223e-07
-1.882223e-07
-1.882223e-07
-1.882223e-07
-1.882223e-07
-1.882223e-07
-2.159434e-07
-1.888007e-07
-1.882228e-07
-1.882223e-07
-1.882223e-07
-1.882223e-07
-1.882223e-07
-1.882223e-07
-1.882223e-07
-1.882223e-07
-1.882223e-07
-1.882223e-07
-1.882223e-07
-1.882223e-07
-1.882223e-07
-1.882223e-07
-1.882223e-07
-1.882223e-07
-2.169629e-07
-1.887985e-07
-1.882228e-07
-1.882223e-07
-1.882223e-07
-1.882223e-07
-1.882223e-07
-1.882223e-07
-1.882223e-07
-1.882223e-07
-1.882223e-07
-1.882223e-07
-1.882223e-07
-1.882223e-07
-1.882223e-07
-1.882223e-07
-1.882223e-07
-1.882223e-07
-2.181471e-07
-1.888058e-07
-1.882228e-07
-1.882223e-07
-1.882223e-07
-1.882223e-07
-1.882223e-07
-1.882223e-07
-1.882223e-07
-1.882223e-07
-1.882223e-07
-1.882223e-07
-1.882223e-07
-1.882223e-07
-1.882223e-07
-1.882223e-07
-1.882223e-07
-1.882223e-07
-2.194663e-07
-1.888159e-07
-1.882228e-07
-1.882223e-07
-1.882223e-07
-1.882223e-07
-1.882223e-07
-1.882223e-07
-1.882223e-07
-1.882223e-07
-1.882223e-07
-1.882223e-07
-1.882223e-07
-1.882223e-07
-1.882223e-07
-1.882223e-07
-1.882223e-07
-1.882223e-07
-2.208795e-07
-1.88831e-07
-1.882228e-07
-1.882223e-07
-1.882223e-07
-1.882223e-07
-1.882223e-07
-1.882223e-07
-1.882223e-07
-1.882223e-07
-1.882223e-07
-1.882223e-07
-1.882223e-07
-1.882223e-07
-1.882223e-07
-1.882223e-07
-1.882223e-07
-1.882223e-07
-2.223284e-07
-1.888525e-07
-1.882228e-07
-1.882223e-07
-1.882223e-07
-1.882223e-07
-1.882223e-07
-1.882223e-07
-1.882223e-07
-1.882223e-07
-1.882223e-07
-1.882223e-07
-1.882223e-07
-1.882223e-07
-1.882223e-07
-1.882223e-07
-1.882223e-07
-1.882223e-07
-2.23737e-07
-1.888797e-07
-1.882229e-07
-1.882223e-07
-1.882223e-07
-1.882223e-07
-1.882223e-07
-1.882223e-07
-1.882223e-07
-1.882223e-07
-1.882223e-07
-1.882223e-07
-1.882223e-07
-1.882223e-07
-1.882223e-07
-1.882223e-07
-1.882223e-07
-1.882223e-07
-2.24983e-07
-1.889161e-07
-1.882229e-07
-1.882223e-07
-1.882223e-07
-1.882223e-07
-1.882223e-07
-1.882223e-07
-1.882223e-07
-1.882223e-07
-1.882223e-07
-1.882223e-07
-1.882223e-07
-1.882223e-07
-1.882223e-07
-1.882223e-07
-1.882223e-07
-1.882223e-07
-2.25767e-07
-1.889769e-07
-1.882229e-07
-1.882223e-07
-1.882223e-07
-1.882223e-07
-1.882223e-07
-1.882223e-07
-1.882223e-07
-1.882223e-07
-1.882223e-07
-1.882223e-07
-1.882223e-07
-1.882223e-07
-1.882223e-07
-1.882223e-07
-1.882223e-07
-1.882223e-07
-2.260528e-07
-1.890848e-07
-1.88223e-07
-1.882223e-07
-1.882223e-07
-1.882223e-07
-1.882223e-07
-1.882223e-07
-1.882223e-07
-1.882223e-07
-1.882223e-07
-1.882223e-07
-1.882223e-07
-1.882223e-07
-1.882223e-07
-1.882223e-07
-1.882223e-07
-1.882223e-07
-2.254868e-07
-1.892143e-07
-1.882231e-07
-1.882223e-07
-1.882223e-07
-1.882223e-07
-1.882223e-07
-1.882223e-07
-1.882223e-07
-1.882223e-07
-1.882223e-07
-1.882223e-07
-1.882223e-07
-1.882223e-07
-1.882223e-07
-1.882223e-07
-1.882223e-07
-1.882223e-07
-2.553573e-07
-1.893593e-07
-1.882233e-07
-1.882223e-07
-1.882223e-07
-1.882223e-07
-1.882223e-07
-1.882223e-07
-1.882223e-07
-1.882223e-07
-1.882223e-07
-1.882223e-07
-1.882223e-07
-1.882223e-07
-1.882223e-07
-1.882223e-07
-1.882223e-07
-1.882223e-07
-2.168433e-07
-1.896931e-07
-1.882237e-07
-1.882223e-07
-1.882223e-07
-1.882223e-07
-1.882223e-07
-1.882223e-07
-1.882223e-07
-1.882223e-07
-1.882223e-07
-1.882223e-07
-1.882223e-07
-1.882223e-07
-1.882223e-07
-1.882223e-07
-1.882223e-07
-1.882223e-07
-1.953779e-07
-1.892196e-07
-1.882269e-07
-1.882222e-07
-1.882223e-07
-1.882223e-07
-1.882223e-07
-1.882223e-07
-1.882223e-07
-1.882223e-07
-1.882223e-07
-1.882223e-07
-1.882223e-07
-1.882223e-07
-1.882223e-07
-1.882223e-07
-1.882223e-07
-1.882223e-07
-1.854054e-07
-1.89402e-07
-1.882253e-07
-1.882234e-07
-1.882222e-07
-1.882223e-07
-1.882223e-07
-1.882223e-07
-1.882223e-07
-1.882223e-07
-1.882223e-07
-1.882223e-07
-1.882223e-07
-1.882223e-07
-1.882223e-07
-1.882223e-07
-1.882223e-07
-1.882223e-07
-1.762038e-07
-1.895678e-07
-1.88224e-07
-1.882229e-07
-1.882229e-07
-1.882223e-07
-1.882223e-07
-1.882223e-07
-1.882223e-07
-1.882223e-07
-1.882223e-07
-1.882223e-07
-1.882223e-07
-1.882223e-07
-1.882223e-07
-1.882223e-07
-1.882223e-07
-1.882223e-07
-1.670499e-07
-1.897337e-07
-1.882241e-07
-1.882223e-07
-1.882225e-07
-1.882224e-07
-1.882223e-07
-1.882223e-07
-1.882223e-07
-1.882223e-07
-1.882223e-07
-1.882223e-07
-1.882223e-07
-1.882223e-07
-1.882223e-07
-1.882223e-07
-1.882223e-07
-1.882223e-07
-1.580786e-07
-1.898654e-07
-1.882242e-07
-1.882223e-07
-1.882223e-07
-1.882224e-07
-1.882223e-07
-1.882223e-07
-1.882223e-07
-1.882223e-07
-1.882223e-07
-1.882223e-07
-1.882223e-07
-1.882223e-07
-1.882223e-07
-1.882223e-07
-1.882223e-07
-1.882223e-07
-1.502866e-07
-1.899548e-07
-1.882244e-07
-1.882223e-07
-1.882223e-07
-1.882223e-07
-1.882223e-07
-1.882223e-07
-1.882223e-07
-1.882223e-07
-1.882223e-07
-1.882223e-07
-1.882223e-07
-1.882223e-07
-1.882223e-07
-1.882223e-07
-1.882223e-07
-1.882223e-07
-1.433942e-07
-1.900374e-07
-1.882245e-07
-1.882223e-07
-1.882223e-07
-1.882223e-07
-1.882223e-07
-1.882223e-07
-1.882223e-07
-1.882223e-07
-1.882223e-07
-1.882223e-07
-1.882223e-07
-1.882223e-07
-1.882223e-07
-1.882223e-07
-1.882223e-07
-1.882223e-07
-1.367196e-07
-1.901252e-07
-1.882247e-07
-1.882223e-07
-1.882223e-07
-1.882223e-07
-1.882223e-07
-1.882223e-07
-1.882223e-07
-1.882223e-07
-1.882223e-07
-1.882223e-07
-1.882223e-07
-1.882223e-07
-1.882223e-07
-1.882223e-07
-1.882223e-07
-1.882223e-07
-1.298652e-07
-1.902313e-07
-1.882249e-07
-1.882223e-07
-1.882223e-07
-1.882223e-07
-1.882223e-07
-1.882223e-07
-1.882223e-07
-1.882223e-07
-1.882223e-07
-1.882223e-07
-1.882223e-07
-1.882223e-07
-1.882223e-07
-1.882223e-07
-1.882223e-07
-1.882223e-07
-1.234519e-07
-1.903257e-07
-1.882252e-07
-1.882223e-07
-1.882223e-07
-1.882223e-07
-1.882223e-07
-1.882223e-07
-1.882223e-07
-1.882223e-07
-1.882223e-07
-1.882223e-07
-1.882223e-07
-1.882223e-07
-1.882223e-07
-1.882223e-07
-1.882223e-07
-1.882223e-07
-1.172185e-07
-1.904248e-07
-1.882254e-07
-1.882223e-07
-1.882223e-07
-1.882223e-07
-1.882223e-07
-1.882223e-07
-1.882223e-07
-1.882223e-07
-1.882223e-07
-1.882223e-07
-1.882223e-07
-1.882223e-07
-1.882223e-07
-1.882223e-07
-1.882223e-07
-1.882223e-07
-1.108752e-07
-1.90526e-07
-1.882257e-07
-1.882223e-07
-1.882223e-07
-1.882223e-07
-1.882223e-07
-1.882223e-07
-1.882223e-07
-1.882223e-07
-1.882223e-07
-1.882223e-07
-1.882223e-07
-1.882223e-07
-1.882223e-07
-1.882223e-07
-1.882223e-07
-1.882223e-07
-1.049675e-07
-1.90618e-07
-1.88226e-07
-1.882223e-07
-1.882223e-07
-1.882223e-07
-1.882223e-07
-1.882223e-07
-1.882223e-07
-1.882223e-07
-1.882223e-07
-1.882223e-07
-1.882223e-07
-1.882223e-07
-1.882223e-07
-1.882223e-07
-1.882223e-07
-1.882223e-07
-9.924055e-08
-1.907191e-07
-1.882263e-07
-1.882227e-07
-1.882231e-07