/*--------------------------------*- C++ -*----------------------------------*\
| =========                 |                                                 |
| \\      /  F ield         | OpenFOAM: The Open Source CFD Toolbox           |
|  \\    /   O peration     | Version:  2206                                  |
|   \\  /    A nd           | Website:  www.openfoam.com                      |
|    \\/     M anipulation  |                                                 |
\*---------------------------------------------------------------------------*/
FoamFile
{
    version     2.0;
    format      ascii;
    arch        "LSB;label=32;scalar=64";
    class       volScalarField;
    location    "1.4";
    object      ddt0(alpha.a);
}
// * * * * * * * * * * * * * * * * * * * * * * * * * * * * * * * * * * * * * //

dimensions      [0 0 -1 0 0 0 0];

internalField   nonuniform List<scalar> 
13078
(
-0.4919089
-0.03874338
-0.001584269
-0.0002554358
-0.0001090449
-9.044099e-05
-7.275292e-05
-0.03528637
-0.003139955
-0.0002953458
-0.00011784
-0.0001087902
-8.48277e-05
-7.057829e-05
-0.001258082
-0.0001957121
-8.236458e-05
-8.937127e-05
-8.029144e-05
-7.036619e-05
-6.34669e-05
6.638561e-05
-1.269346e-06
-3.797018e-05
-4.861763e-05
-5.423122e-05
-5.538085e-05
-5.504361e-05
0.0001381966
4.340689e-05
-1.203882e-07
-2.241076e-05
-3.433538e-05
-4.216035e-05
-4.726818e-05
0.0001205217
4.997136e-05
1.640839e-05
-6.09021e-06
-2.206488e-05
-3.251872e-05
-4.087484e-05
9.548682e-05
4.451303e-05
2.137164e-05
1.672902e-06
-1.427751e-05
-2.728276e-05
-3.69758e-05
7.775537e-05
3.541414e-05
2.037325e-05
3.592317e-06
-1.114009e-05
-2.432182e-05
-3.565619e-05
6.541154e-05
2.724333e-05
1.714085e-05
2.746025e-06
-1.081317e-05
-2.383194e-05
-3.539535e-05
5.687031e-05
2.06159e-05
1.316953e-05
4.927787e-07
-1.205994e-05
-2.456764e-05
-3.613457e-05
5.068523e-05
1.513945e-05
9.236135e-06
-2.118932e-06
-1.394324e-05
-2.595221e-05
-3.765092e-05
4.594892e-05
1.077387e-05
5.690113e-06
-4.838225e-06
-1.603655e-05
-2.80291e-05
-3.990994e-05
4.219626e-05
7.249845e-06
2.566968e-06
-7.506031e-06
-1.858809e-05
-3.070158e-05
-4.274636e-05
3.909067e-05
4.338253e-06
-1.608668e-07
-1.042983e-05
-2.181816e-05
-3.363004e-05
-4.566193e-05
3.654337e-05
1.875598e-06
-2.746131e-06
-1.250026e-05
-2.379114e-05
-3.617591e-05
-4.836288e-05
3.440572e-05
-3.779571e-07
-5.389935e-06
-1.564649e-05
-2.681988e-05
-3.855721e-05
-5.11133e-05
3.237809e-05
-2.83274e-06
-7.897468e-06
-1.783444e-05
-2.900845e-05
-4.121838e-05
-5.415073e-05
3.024976e-05
-5.286793e-06
-1.016844e-05
-2.007258e-05
-3.153096e-05
-4.422549e-05
-5.732443e-05
2.806289e-05
-7.471131e-06
-1.242632e-05
-2.252835e-05
-3.46754e-05
-4.763474e-05
-6.02241e-05
2.59158e-05
-9.57741e-06
-1.485979e-05
-2.517794e-05
-3.616632e-05
-4.887669e-05
-6.273715e-05
2.373947e-05
-1.198404e-05
-1.755489e-05
-2.803292e-05
-4.017383e-05
-5.302159e-05
-6.592881e-05
2.136208e-05
-1.483407e-05
-2.056452e-05
-3.115877e-05
-4.284322e-05
-5.608563e-05
-6.935603e-05
1.853811e-05
-1.802399e-05
-2.384628e-05
-3.471728e-05
-4.666118e-05
-6.039084e-05
-7.369515e-05
1.531483e-05
-2.141044e-05
-2.771302e-05
-3.882685e-05
-5.091656e-05
-6.204944e-05
-7.528538e-05
1.180931e-05
-2.532435e-05
-3.231851e-05
-4.379334e-05
-5.603719e-05
-6.947923e-05
-8.283128e-05
7.855457e-06
-3.033797e-05
-3.797197e-05
-4.990312e-05
-6.247237e-05
-7.507212e-05
-8.862794e-05
3.226266e-06
-3.615288e-05
-4.474964e-05
-5.761608e-05
-7.058515e-05
-8.334775e-05
-9.702592e-05
-2.175613e-06
-4.277311e-05
-5.292908e-05
-6.705628e-05
-8.05933e-05
-9.362979e-05
-0.0001023191
-8.181499e-06
-5.087546e-05
-6.290626e-05
-7.83141e-05
-9.338817e-05
-0.0001068477
-0.0001196995
-1.42991e-05
-5.911979e-05
-7.437396e-05
-9.19622e-05
-0.0001088985
-0.00012372
-0.0001364792
-2.08951e-05
-6.931989e-05
-8.787267e-05
-0.0001083584
-0.0001278331
-0.0001452317
-0.0001587006
-2.740863e-05
-7.903745e-05
-0.0001024372
-0.0001279431
-0.0001503561
-0.0001702458
-0.0001868607
-3.270846e-05
-9.020453e-05
-0.0001169645
-0.0001474749
-0.0001757035
-0.000199723
-0.00022066
-3.681265e-05
-0.0001001729
-0.0001347483
-0.0001711926
-0.0002045689
-0.0002338439
-0.000260081
-3.896089e-05
-0.0001088545
-0.0001498055
-0.0001902699
-0.0002320638
-0.0002713054
-0.0003041385
-3.729556e-05
-0.0001144451
-0.0001622708
-0.0002114127
-0.0002544788
-0.0003001259
-0.0003485815
-3.143689e-05
-0.0001148013
-0.000168519
-0.0002223576
-0.0002765155
-0.000329601
-0.0003899202
-2.050448e-05
-0.0001081432
-0.0001654427
-0.0002219356
-0.0002787773
-0.000329633
-0.0003974295
-3.227569e-06
-9.160732e-05
-0.0001499134
-0.0002062936
-0.0002613031
-0.0003254294
-0.0003857738
2.133673e-05
-6.564696e-05
-0.000123049
-0.0001786727
-0.0002315875
-0.0002791379
-0.0003048641
5.521556e-05
-3.382051e-05
-9.252405e-05
-0.0001498115
-0.0001861631
-0.0001877336
-0.0004336247
8.736724e-05
-2.867273e-06
-6.605224e-05
-9.992867e-05
-8.227177e-05
-0.0005889281
-0.002753503
0.0001184351
2.359492e-05
-1.381626e-05
1.734881e-05
-0.0004778539
-0.00326366
-0.007140228
0.0001459577
7.408121e-05
0.000101119
-0.0002325914
-0.002846985
-0.007464404
-0.008347171
0.0001771992
0.0001780416
8.339327e-05
-0.002456554
-0.006970791
-0.008536943
0.0004728281
0.0002341227
0.0003461881
-0.001121719
-0.006397971
-0.00907183
-0.001790888
0.008855882
0.0003318304
-0.0001586728
-0.004154597
-0.008709522
-0.004893944
0.005580189
0.006541983
0.0004141173
-0.002186019
-0.0073745
-0.007093951
0.002428133
0.006505597
0.0004268861
-9.37601e-05
-0.004973612
-0.008439408
-0.002813923
0.004472569
0.001232289
-0.00389528
-0.001375384
-0.006851523
-0.006788352
0.000608071
0.001985293
-0.003826971
-0.005896628
-0.003592698
-0.007639686
-0.003182223
0.001601259
-0.00167936
-0.007300948
-0.007104872
-0.006228389
-0.007444155
-0.00109619
0.0003497172
-0.004866131
-0.008801261
-0.007893962
-0.008419542
-0.006994698
-0.00163506
-0.001194875
-0.00688494
-0.009779309
-0.007364196
-0.009712066
-0.00612551
-0.001237214
-0.002540143
-0.008445127
-0.0103206
-0.006721395
-0.01056181
-0.005409109
-0.001128468
-0.00370428
-0.009595452
-0.01056923
-0.006300155
-0.01143671
-0.005085872
-0.001213199
-0.004453527
-0.01022163
-0.01063543
-0.005882283
-0.01135162
-0.00486732
-0.0008950011
-0.004041824
-0.009784201
-0.01023792
-0.005530085
-0.01048807
-0.00519445
-0.000716175
-0.003070275
-0.008878989
-0.009868513
-0.005651985
-0.009679185
-0.006018137
-0.0008259072
-0.001673723
-0.00729056
-0.008935841
-0.005169106
-0.008316897
-0.006820848
-0.001007233
0.0003431508
-0.004704015
-0.007146008
-0.004524157
-0.006063947
-0.007264262
-0.0005126322
0.002289805
-0.002045129
-0.005823346
-0.004850852
-0.003374785
-0.007400035
-0.003440412
0.002326029
0.0008056759
-0.004048291
-0.003686546
-0.001256762
-0.006607298
-0.007233525
0.000461778
0.004355409
0.0002231384
-0.001320984
-3.601103e-05
-0.00459101
-0.008389714
-0.003857027
0.005513008
0.005368499
0.00101815
0.0003850489
-0.001950627
-0.006817626
-0.007838028
0.0009231929
0.008538105
0.004801634
0.0002922646
-0.0001054791
-0.003664066
-0.008353948
-0.006918701
0.004329056
0.009609009
0.000201129
0.0002821185
-0.001003032
-0.005678451
-0.008887807
-0.00411995
0.007488895
0.0001503027
0.0001189185
2.552071e-05
-0.002144895
-0.005865323
-0.008773405
-0.002711198
0.0001242393
2.735433e-05
2.020478e-05
-0.0002674931
-0.002493516
-0.006297616
-0.008269726
9.734203e-05
-1.474426e-05
-7.612407e-05
-7.646632e-05
-0.0005074136
-0.002653199
-0.005642292
6.677693e-05
-3.5504e-05
-0.000114082
-0.0001673781
-0.0001753851
-0.0005453326
-0.002351889
3.422993e-05
-6.142414e-05
-0.0001302368
-0.0001992991
-0.0002512839
-0.0002727467
-0.0004878447
2.269275e-06
-9.004017e-05
-0.0001537395
-0.0002168896
-0.0002791848
-0.0003410148
-0.0003887098
-2.159193e-05
-0.0001131495
-0.0001751673
-0.0002367481
-0.0002988938
-0.0003693518
-0.000440532
-3.781067e-05
-0.0001262692
-0.0001852184
-0.0002454684
-0.0003058133
-0.0003607913
-0.0004306609
-4.676851e-05
-0.000129828
-0.000183812
-0.0002401612
-0.0002924029
-0.0003476008
-0.0004074004
-5.010541e-05
-0.000126253
-0.0001737747
-0.0002235563
-0.0002681851
-0.0003142347
-0.0003576493
-4.946544e-05
-0.0001178421
-0.0001585258
-0.0001978794
-0.000238554
-0.0002762033
-0.0003071463
-4.534737e-05
-0.0001076106
-0.0001404967
-0.0001757153
-0.000208006
-0.0002363707
-0.0002600161
-3.932613e-05
-9.534526e-05
-0.0001213321
-0.0001503475
-0.0001768328
-0.0001997828
-0.000218565
-3.260263e-05
-8.274926e-05
-0.0001048502
-0.0001292842
-0.0001502105
-0.0001686842
-0.0001838578
-2.492381e-05
-7.243096e-05
-8.927818e-05
-0.0001087476
-0.0001270948
-0.0001428083
-0.0001550626
-1.79821e-05
-6.126501e-05
-7.504345e-05
-9.170278e-05
-0.0001076271
-0.0001211119
-0.0001324051
-1.098816e-05
-5.216518e-05
-6.289922e-05
-7.807981e-05
-9.147494e-05
-0.0001040492
-0.0001160882
-4.261456e-06
-4.374592e-05
-5.309146e-05
-6.661128e-05
-7.900786e-05
-9.121205e-05
-9.989151e-05
1.204496e-06
-3.672483e-05
-4.512157e-05
-5.707073e-05
-6.930726e-05
-8.115379e-05
-9.431676e-05
6.378064e-06
-3.092855e-05
-3.81763e-05
-4.934197e-05
-6.152223e-05
-7.322988e-05
-8.611214e-05
1.083876e-05
-2.615617e-05
-3.245201e-05
-4.366101e-05
-5.516728e-05
-6.79827e-05
-8.035284e-05
1.415234e-05
-2.210974e-05
-2.78306e-05
-3.872726e-05
-4.984442e-05
-6.107432e-05
-7.378671e-05
1.718021e-05
-1.821834e-05
-2.40165e-05
-3.453267e-05
-4.609436e-05
-5.876001e-05
-7.209885e-05
2.019889e-05
-1.517575e-05
-2.065451e-05
-3.103289e-05
-4.214754e-05
-5.489113e-05
-6.824073e-05
2.296238e-05
-1.250832e-05
-1.785576e-05
-2.779168e-05
-3.952405e-05
-5.222473e-05
-6.503864e-05
2.506028e-05
-1.015766e-05
-1.517472e-05
-2.52508e-05
-3.608678e-05
-4.845835e-05
-6.209403e-05
2.712029e-05
-8.136813e-06
-1.287376e-05
-2.289769e-05
-3.456874e-05
-4.695487e-05
-5.955855e-05
2.889746e-05
-6.000673e-06
-1.077993e-05
-2.069838e-05
-3.177211e-05
-4.415631e-05
-5.672979e-05
3.078669e-05
-4.050994e-06
-8.831676e-06
-1.840666e-05
-2.961639e-05
-4.165935e-05
-5.38718e-05
3.265444e-05
-1.970171e-06
-6.559803e-06
-1.623051e-05
-2.735691e-05
-3.902386e-05
-5.123941e-05
3.486258e-05
1.910459e-07
-4.169624e-06
-1.356297e-05
-2.435235e-05
-3.641914e-05
-4.869046e-05
3.723542e-05
2.76859e-06
-1.671687e-06
-1.159469e-05
-2.229304e-05
-3.388202e-05
-4.603973e-05
3.981584e-05
5.338491e-06
9.131676e-07
-8.826641e-06
-1.951138e-05
-3.125153e-05
-4.317426e-05
4.28034e-05
8.093825e-06
3.615389e-06
-6.307e-06
-1.711358e-05
-2.882991e-05
-4.051971e-05
4.638525e-05
1.134363e-05
6.52353e-06
-3.733604e-06
-1.472811e-05
-2.647886e-05
-3.799387e-05
5.084397e-05
1.565357e-05
1.001683e-05
-9.798372e-07
-1.243695e-05
-2.442206e-05
-3.590276e-05
5.680588e-05
2.130151e-05
1.402349e-05
1.709116e-06
-1.055795e-05
-2.283569e-05
-3.418552e-05
6.556267e-05
2.822829e-05
1.782088e-05
3.735532e-06
-9.51503e-06
-2.208085e-05
-3.330664e-05
7.795871e-05
3.603405e-05
2.091758e-05
4.705886e-06
-9.86306e-06
-2.278999e-05
-3.33817e-05
9.52229e-05
4.46272e-05
2.18279e-05
2.731852e-06
-1.299904e-05
-2.519995e-05
-3.551735e-05
0.0001193727
5.037038e-05
1.811845e-05
-4.159927e-06
-1.931694e-05
-3.099477e-05
-3.977019e-05
0.0001376632
4.450008e-05
2.002019e-06
-1.805269e-05
-3.199636e-05
-4.047998e-05
-4.556905e-05
7.015725e-05
8.718038e-07
-2.9875e-05
-4.483758e-05
-5.135546e-05
-5.272724e-05
-5.302203e-05
-0.001125443
-0.0001658678
-7.477237e-05
-8.405188e-05
-7.595679e-05
-6.755859e-05
-6.155723e-05
-0.03286955
-0.00267997
-0.0002066677
-9.985087e-05
-0.0001052766
-8.414204e-05
-7.059708e-05
-6.118599e-05
-4.786397e-05
-3.228589e-05
-1.678686e-05
-7.685971e-06
-1.232742e-05
-0.0004229423
-6.03128e-05
-4.765989e-05
-3.297585e-05
-2.156992e-05
-6.72033e-06
-1.149852e-05
-0.0002961247
-5.698046e-05
-4.645947e-05
-3.170125e-05
-1.841328e-05
-1.010293e-05
-1.560258e-05
-0.0003115854
-5.293949e-05
-4.538771e-05
-3.359824e-05
-2.993866e-05
-1.378272e-05
-2.170781e-05
-0.0003431755
-4.892408e-05
-4.431942e-05
-3.476502e-05
-2.210048e-05
-1.779589e-05
-2.96527e-05
-0.0003868337
-4.571101e-05
-4.392544e-05
-3.629446e-05
-2.480001e-05
-2.360528e-05
-3.917426e-05
-0.0004422143
-4.380091e-05
-4.450418e-05
-3.881458e-05
-2.869624e-05
-3.154247e-05
-5.005182e-05
-0.0005077139
-4.351487e-05
-4.568001e-05
-4.151678e-05
-3.268852e-05
-3.736319e-05
-6.167134e-05
-0.0005824377
-4.448639e-05
-4.755564e-05
-4.455347e-05
-3.726646e-05
-4.429738e-05
-7.377455e-05
-0.0006654677
-4.566897e-05
-5.020156e-05
-4.854684e-05
-4.2421e-05
-5.213184e-05
-8.633299e-05
-0.0007561435
-4.770875e-05
-5.328672e-05
-5.319197e-05
-4.798026e-05
-6.024129e-05
-9.900908e-05
-0.0008538642
-5.056141e-05
-5.702089e-05
-5.778387e-05
-5.499711e-05
-6.818775e-05
-0.0001117202
-0.000959465
-5.370698e-05
-6.086646e-05
-6.269818e-05
-6.122211e-05
-7.689074e-05
-0.0001239238
-0.001078241
-5.681949e-05
-6.47639e-05
-6.767457e-05
-6.707628e-05
-8.567977e-05
-0.0001389177
-0.001212014
-6.002715e-05
-6.871222e-05
-7.25344e-05
-7.302485e-05
-9.450851e-05
-0.0001538159
-0.001375321
-6.339838e-05
-7.28009e-05
-7.740536e-05
-7.922493e-05
-0.0001030984
-0.000167859
-0.001405588
-6.674137e-05
-7.676969e-05
-8.235027e-05
-8.523057e-05
-0.000115621
-0.0001820488
-0.001479855
-6.986726e-05
-8.043409e-05
-8.693506e-05
-9.113171e-05
-0.0001246683
-0.0001962386
-0.001578057
-7.300985e-05
-8.408004e-05
-9.161253e-05
-9.639907e-05
-0.0001282076
-0.0002107297
-0.001679477
-7.617736e-05
-8.79235e-05
-9.638371e-05
-0.0001020527
-0.0001367293
-0.0002256828
-0.001786052
-7.938258e-05
-9.198722e-05
-0.0001011925
-0.0001075929
-0.0001453345
-0.0002410654
-0.001898816
-8.286149e-05
-9.606424e-05
-0.0001060926
-0.0001131057
-0.0001538956
-0.0002567761
-0.002014244
-8.682918e-05
-0.0001000302
-0.0001107196
-0.0001205104
-0.0001644165
-0.0002734498
-0.002137798
-9.075219e-05
-0.0001040924
-0.0001167889
-0.0001378366
-0.0001625776
-0.0002893851
-0.002266747
-9.504461e-05
-0.0001084401
-0.000119469
-0.0001633868
-0.0001781715
-0.0003044844
-0.0023981
-0.0001008196
-0.0001138401
-0.0001257661
-0.0001330562
-0.000185513
-0.0003222779
-0.002537648
-0.0001090225
-0.0001206143
-0.0001318828
-0.0001383655
-0.0001947886
-0.0003466516
-0.002680829
-0.0001144139
-0.0001272715
-0.0001394361
-0.000146947
-0.0002043584
-0.0003512623
-0.002827208
-0.0001303454
-0.0001547305
-0.0001833882
-0.0001660265
-0.0002160021
-0.0003740295
-0.00298208
-0.0001491693
-0.0001444966
-0.0001591403
-0.0001769418
-0.000231017
-0.0003995458
-0.003149685
-0.0001632356
-0.0001583432
-0.0001783859
-0.0001945281
-0.0002506248
-0.000372901
-0.003297929
-0.0002012844
-0.0001969331
-0.0002031642
-0.0002168229
-0.0002736341
-0.0004471623
-0.003462924
-0.0002360363
-0.0002357821
-0.0002320869
-0.0002453664
-0.0003029626
-0.0004818631
-0.003715202
-0.0002806598
-0.0002745826
-0.0002533328
-0.00028181
-0.000340144
-0.0005270884
-0.003553138
-0.0003324425
-0.000331522
-0.0003139156
-0.000326325
-0.0003861596
-0.000573658
-0.003608322
-0.0003882776
-0.0003980781
-0.0003756137
-0.0003912126
-0.0004459273
-0.0006507722
0.0003098533
-0.0004433486
-0.0004724975
-0.0004291899
-0.0004482634
-0.0005322354
-0.0007549576
-0.003638123
-0.0004854247
-0.0005476756
-0.0004821012
-0.0004478018
-0.0006779847
-0.001087477
-0.00471266
-0.0004736034
-0.0006169127
-0.0005224979
-0.0004313786
-0.001503083
-0.00459717
-0.01454978
-0.0003430348
-0.0005161102
-0.001321902
-0.00286347
-0.004376597
-0.01204654
-0.02532366
-0.001536923
-0.002943896
-0.004770405
-0.000638853
-0.0009125408
-0.01374651
-0.02294839
-0.005210265
-0.006967568
0.001307064
0.007646676
0.001056497
-0.008868082
-0.0223576
-0.005553728
-0.001728042
0.008894221
0.004020736
0.002142254
-0.01042065
-0.02725306
0.003755017
0.006358627
0.007212778
0.003594249
0.004115607
-0.007787552
-0.0209665
0.008854562
0.004547193
0.004163077
0.00750936
0.004450505
-0.003906992
-0.00923631
0.007910305
0.001861706
0.007422897
0.006392766
0.01155797
-0.001674904
-0.01030637
0.003248187
-0.0006305685
0.005239835
0.01232385
0.01381697
0.002375337
-0.0130742
0.0008141282
-0.0004183751
0.007527069
0.01386719
0.02147385
0.004140341
-0.01371281
-0.00108554
0.001847819
0.008427625
0.01675364
0.02345532
0.01320487
-0.01376258
-0.0002340886
0.001795864
0.01020911
0.01540415
0.02376459
0.01938644
0.004910505
-0.0005784238
0.002117459
0.004993404
0.01216531
0.01954169
0.01648746
0.006338901
-0.0006717336
0.0008660144
0.002700858
0.0123797
0.02206047
0.01804651
0.01394667
0.0004372966
0.001549187
0.006570806
0.01778531
0.02783894
0.02513073
0.01718656
0.001499529
0.006687613
0.01509302
0.02086434
0.01903032
0.01912201
-0.002542977
0.00277551
0.01016385
0.01731762
0.02040378
0.02744861
0.02926584
0.01119148
0.00346173
0.0105538
0.01322185
0.02160642
0.03228056
0.02114313
0.003744
0.01088607
0.01280563
0.02191068
0.03142539
0.0201857
0.003077738
0.01204026
0.01488618
0.01843069
0.01891798
0.01116195
0.002593287
0.01039861
0.01438045
0.01653462
0.01642909
0.01442938
-0.003407764
0.002718435
0.007305445
0.007338876
0.01720825
0.02633514
0.01691629
0.002818042
0.002456791
0.007386891
0.008184473
0.01328494
0.02703883
0.026529
0.01482208
0.002821497
0.01032964
0.008618808
0.01328428
0.02364492
0.01990691
0.01096823
0.004187025
0.01020906
0.007723226
0.01288328
0.02513
0.02229659
0.01219504
0.003603785
0.009841398
0.009540984
0.01183661
0.02133076
0.02255228
0.001816649
0.005159683
0.01130994
0.008462434
0.01229567
0.01881356
0.01806924
-0.01552424
0.007146076
0.009631665
0.01017965
0.009972484
0.01646415
0.01127446
-0.003267786
0.01049817
0.01176886
0.01033402
0.01235182
0.01066782
0.004691821
-0.02217706
0.009524335
0.01345817
0.008028281
0.01152743
0.01049643
0.001359321
-0.02166547
7.651113e-05
0.01404123
0.01003396
0.008755041
0.007995837
0.003596298
-0.0003748442
-0.006698992
0.001240852
0.01133414
0.007595217
0.00476037
-0.00033781
-0.001398158
-0.004616478
-0.00634429
0.0033176
0.009030037
0.004278457
-0.000847014
-0.009822717
-0.001482061
-0.003737105
-0.004514984
0.0006028313
0.003407942
-0.006439555
-0.01671531
-0.0004612049
-0.0009641613
-0.002510447
-0.003192259
-0.002040362
-0.008572937
-0.02142582
-0.0005388295
-0.0005906128
-0.0006028774
-0.001063279
-0.002624925
-0.005596267
-0.01465503
-0.0005174223
-0.000545109
-0.0005454756
-0.0005564745
-0.0007118629
-0.001608342
-0.005209442
-0.0004579099
-0.0004765715
-0.0004754286
-0.0004882898
-0.0005889855
-0.0008426118
-0.00422515
-0.0003934087
-0.0004129897
-0.0004118675
-0.0003954559
-0.0005024781
-0.0007292768
-0.003021576
-0.0003323645
-0.000353357
-0.0003477257
-0.0003629838
-0.0004318097
-0.0006370683
-0.004101376
-0.0002782018
-0.0002989869
-0.0003072968
-0.0003106497
-0.0003759327
-0.0005765135
-0.003803637
-0.0002317698
-0.0002531704
-0.0002568469
-0.0002667149
-0.00033084
-0.0005213413
-0.003458398
-0.0001962111
-0.0002031312
-0.0002139841
-0.00023216
-0.0002941317
-0.0004782505
-0.003696398
-0.0001583693
-0.0001878756
-0.0001869919
-0.0002053468
-0.0002654835
-0.0004624151
-0.003461008
-0.0001437082
-0.0001634146
-0.0001651282
-0.0001845144
-0.0002424485
-0.0004271778
-0.003307618
-0.0001251742
-0.0001412295
-0.0001496405
-0.0001683145
-0.0002239051
-0.0003904861
-0.003103255
-0.0001117596
-0.0001246502
-0.0001364699
-0.0001589447
-0.0002098716
-0.0003675361
-0.002919172
-0.0001063703
-0.0001169297
-0.0001286667
-0.0001498515
-0.0001983416
-0.0003474292
-0.002749769
-9.764095e-05
-0.0001108483
-0.000122309
-0.0001423427
-0.000188413
-0.0003296848
-0.002590158
-9.22537e-05
-0.0001056323
-0.0001171288
-0.0001361756
-0.0001792964
-0.0003108394
-0.002439639
-8.821374e-05
-0.0001015299
-0.0001126753
-0.0001286807
-0.000173495
-0.0002926772
-0.002290389
-8.507386e-05
-9.77148e-05
-0.0001075667
-0.0001227008
-0.0001602442
-0.0002769812
-0.002155532
-8.152903e-05
-9.367743e-05
-0.0001029118
-0.0001172767
-0.0001554355
-0.0002601224
-0.002025981
-7.804774e-05
-8.987733e-05
-9.86748e-05
-0.0001110694
-0.0001465655
-0.0002437682
-0.0019044
-7.487595e-05
-8.621821e-05
-9.401073e-05
-0.0001058173
-0.0001379546
-0.0002279636
-0.001786154
-7.174738e-05
-8.247947e-05
-8.985861e-05
-0.000100128
-0.0001294955
-0.0002129207
-0.001677736
-6.877206e-05
-7.919096e-05
-8.555949e-05
-9.48969e-05
-0.0001213659
-0.0001984096
-0.001576832
-6.594213e-05
-7.582435e-05
-8.109118e-05
-9.011323e-05
-0.0001078884
-0.0001845909
-0.001478887
-6.310526e-05
-7.236238e-05
-7.685311e-05
-8.452311e-05
-0.00010542
-0.0001707955
-0.001383214
-6.017011e-05
-6.869398e-05
-7.219697e-05
-7.857841e-05
-9.723968e-05
-0.0001574014
-0.001291218
-5.708116e-05
-6.480809e-05
-6.730789e-05
-7.299066e-05
-8.905029e-05
-0.0001439781
-0.001250404
-5.393964e-05
-6.094089e-05
-6.237291e-05
-6.761921e-05
-8.074462e-05
-0.0001302788
-0.001151817
-5.094316e-05
-5.716532e-05
-5.7732e-05
-6.186553e-05
-7.257814e-05
-0.0001172216
-0.001039976
-4.805067e-05
-5.346474e-05
-5.31821e-05
-5.700397e-05
-6.457431e-05
-0.0001052865
-0.0009239391
-4.5421e-05
-5.014084e-05
-4.872282e-05
-5.190816e-05
-5.697631e-05
-9.347115e-05
-0.0008226074
-4.337665e-05
-4.691345e-05
-4.477471e-05
-4.723693e-05
-4.941135e-05
-8.167737e-05
-0.0007309339
-4.1567e-05
-4.448683e-05
-4.145485e-05
-4.283311e-05
-4.20298e-05
-7.000503e-05
-0.0006470908
-4.125187e-05
-4.296409e-05
-3.814313e-05
-3.835207e-05
-3.439297e-05
-5.87238e-05
-0.0005704219
-4.217488e-05
-4.209609e-05
-3.562164e-05
-3.44143e-05
-2.792748e-05
-4.77132e-05
-0.0005017722
-4.416194e-05
-4.188307e-05
-3.3546e-05
-3.11222e-05
-2.245979e-05
-3.763636e-05
-0.0004416374
-4.715083e-05
-4.240528e-05
-3.24138e-05
-2.894283e-05
-1.6974e-05
-2.868264e-05
-0.0003916564
-5.138384e-05
-4.392448e-05
-3.208215e-05
-2.61797e-05
-1.244141e-05
-2.119873e-05
-0.0003539322
-5.581976e-05
-4.560362e-05
-3.195792e-05
-2.304118e-05
-9.048533e-06
-1.559893e-05
-0.0003318582
-5.992431e-05
-4.716293e-05
-3.252162e-05
-2.087371e-05
-6.941812e-06
-1.211849e-05
-0.0003812133
-0.002508703
-6.621562e-09
-7.20133e-14
-1.805893e-19
-1.855287e-25
-1.438616e-31
-7.774112e-38
-3.007939e-44
-4.680709e-51
-7.96842e-58
-1.35792e-64
-2.35459e-71
-5.161645e-78
-1.430684e-84
-1.210865e-90
-4.016474e-97
-2.097508e-103
-9.596417e-110
-0.0007943511
-5.457092e-09
-1.477985e-14
-3.769448e-20
-4.792476e-26
-4.377146e-32
-2.884839e-38
-1.417482e-44
-3.207969e-51
-7.971951e-58
-1.90153e-64
-4.065735e-71
-8.395683e-78
-1.587757e-84
-7.659979e-91
-3.184302e-98
-3.584543e-105
-4.608594e-112
-0.0003499083
-2.530016e-08
-3.310858e-14
-4.400958e-20
-4.242508e-26
-3.463912e-32
-2.290318e-38
-1.218986e-44
-3.180419e-51
-8.788706e-58
-2.496059e-64
-6.825618e-71
-1.713193e-77
-3.767538e-84
-1.981986e-90
-9.151452e-98
-1.012678e-104
-9.823178e-112
-0.0003885505
-3.192748e-08
-5.067717e-14
-7.886139e-20
-7.945869e-26
-6.535851e-32
-4.288427e-38
-2.324766e-44
-6.068352e-51
-1.83968e-57
-5.612638e-64
-1.655095e-70
-4.546844e-77
-1.133749e-83
-6.529383e-90
-3.4632e-97
-4.397797e-104
-4.829609e-111
-0.0004496103
-3.554701e-08
-6.812961e-14
-1.185486e-19
-1.349689e-25
-1.209725e-31
-8.588734e-38
-4.919099e-44
-1.428908e-50
-4.604099e-57
-1.587738e-63
-5.083229e-70
-1.527411e-76
-4.286751e-83
3.160302e-92
-2.680707e-96
-2.172788e-103
-2.955825e-110
-0.0005439785
-4.012153e-08
-8.722026e-14
-1.719284e-19
-2.232949e-25
-2.20355e-31
-1.721949e-37
-1.078826e-43
-3.476546e-50
-1.291384e-56
-4.971033e-63
-1.846638e-69
-6.046278e-76
-1.904557e-82
-3.502482e-89
-1.526508e-95
-1.603366e-102
-2.346573e-109
-0.0006650605
-4.542244e-08
-1.119228e-13
-2.482839e-19
-3.64079e-25
-4.034015e-31
-3.484434e-37
-2.447266e-43
-9.095993e-50
-3.862183e-56
-1.709588e-62
-7.09202e-69
-2.703056e-75
-9.39672e-82
-3.402151e-88
-9.082162e-95
-1.217959e-101
-1.977545e-108
-0.0008195035
-5.242555e-08
-1.450526e-13
-3.571647e-19
-5.948059e-25
-7.288401e-31
-7.177114e-37
-5.678564e-43
-2.43559e-49
-1.240063e-55
-6.220701e-62
-2.956772e-68
-1.273997e-74
-5.119946e-81
-2.059537e-87
-6.260129e-94
-9.407815e-101
-1.77601e-107
-0.001017402
-6.223367e-08
-1.909614e-13
-5.220385e-19
-9.862274e-25
-1.355676e-30
-1.49744e-36
-1.359714e-42
-6.89075e-49
-4.026417e-55
-2.382419e-61
-1.299932e-67
-6.452574e-74
-2.918935e-80
-1.3186e-86
-4.545994e-93
-8.037614e-100
-1.752034e-106
-0.001269392
-7.436916e-08
-2.564183e-13
-7.764144e-19
-1.677782e-24
-2.586453e-30
-3.239869e-36
-3.374613e-42
-2.033858e-48
-1.384474e-54
-9.574028e-61
-6.000517e-67
-3.491293e-73
-1.776822e-79
-9.149574e-86
-3.599857e-92
-7.388023e-99
-1.812243e-105
-0.00154881
-8.956518e-08
-3.466467e-13
-1.184782e-18
-2.934753e-24
-5.145528e-30
-7.266731e-36
-8.783291e-42
-6.251003e-48
-5.013016e-54
-4.007064e-60
-2.953956e-66
-1.951792e-72
-1.148105e-78
-6.650251e-85
-2.954362e-91
-6.813881e-98
-1.911477e-104
-0.001863364
-1.112149e-07
-4.864119e-13
-1.877879e-18
-5.409168e-24
-1.070503e-29
-1.755604e-35
-2.454647e-41
-2.042093e-47
-1.943276e-53
-1.797487e-59
-1.519133e-65
-1.154227e-71
-7.707409e-78
-5.063274e-84
-2.524434e-90
-7.018698e-97
-2.207808e-103
-0.00232938
-1.406495e-07
-7.15846e-13
-3.191911e-18
-1.082626e-23
-2.461546e-29
-4.667349e-35
-7.525746e-41
-7.252668e-47
-8.052195e-53
-8.579798e-59
-8.393855e-65
-7.248968e-71
-5.497612e-77
-4.160489e-83
-2.288755e-89
-7.209944e-96
-2.616603e-102
-0.002630974
-2.115192e-07
-1.252693e-12
-6.507479e-18
-2.778946e-23
-7.281335e-29
-1.555901e-34
-2.834966e-40
-3.115066e-46
-3.876504e-52
-4.767433e-58
-5.17755e-64
-5.026417e-70
-4.339679e-76
-3.656199e-82
-2.296634e-88
-8.325433e-95
-3.386645e-101
-0.04287346
-4.865999e-07
-3.383177e-12
-2.131123e-17
-9.831288e-23
-3.003879e-28
-7.492357e-34
-1.576926e-39
-2.08587e-45
-3.115756e-51
-4.406195e-57
-5.654245e-63
-6.40758e-69
-6.376489e-75
-6.001789e-81
-4.049653e-87
-1.814758e-93
-8.406368e-100
-0.03208054
-5.666988e-10
-1.811143e-12
-1.136176e-17
-5.324246e-23
-1.723023e-28
-5.105152e-34
-1.395435e-39
-2.488771e-45
-4.782351e-51
-8.219445e-57
-1.234246e-62
-1.629577e-68
-1.865688e-74
-2.092614e-80
-1.624106e-86
-8.268873e-93
-4.509527e-99
-0.03053286
-4.768055e-07
-6.071894e-14
-1.158347e-17
-7.448356e-23
-2.63334e-28
-7.017264e-34
-1.808937e-39
-3.59607e-45
-8.565903e-51
-1.940502e-56
-3.902703e-62
-6.780537e-68
-1.01087e-73
-1.430355e-79
-1.360297e-85
-9.253473e-92
-6.477651e-98
-0.0328963
-4.858912e-07
-5.539664e-12
-4.009589e-19
-1.33968e-22
-5.638218e-28
-1.86756e-33
-4.760467e-39
-8.316425e-45
-1.926816e-50
-4.60832e-56
-1.006241e-61
-1.93532e-67
-3.220869e-73
-5.170185e-79
-5.573493e-85
-4.042293e-91
-3.134702e-97
-0.03595353
-5.263085e-07
-7.386881e-12
-6.971247e-17
-1.392406e-23
-1.154864e-27
-4.326112e-33
-1.418361e-38
-2.798378e-44
-6.742388e-50
-1.773426e-55
-4.581842e-61
-1.047424e-66
-2.039589e-72
-3.698757e-78
-4.319163e-84
-3.681492e-90
-3.123893e-96
-0.03921782
-6.291498e-07
-1.0135e-11
-1.211312e-16
-1.127168e-21
-8.726279e-29
-1.635214e-32
-5.725765e-38
-1.434263e-43
-3.522149e-49
-7.998099e-55
-1.793566e-60
-3.819049e-66
-7.507673e-72
-2.081555e-77
-1.783496e-83
-1.726002e-89
-1.686316e-95
-0.04266868
-7.987379e-07
-1.195155e-11
-1.500045e-16
-1.579004e-21
-1.014339e-26
2.048753e-34
-1.108559e-37
-3.368968e-43
-1.274029e-48
-4.022698e-54
-1.053035e-59
-2.378063e-65
-4.836583e-71
-1.604181e-76
-1.52155e-83
-1.369027e-88
-1.868712e-94
-0.04634313
-1.069084e-06
-1.67309e-11
-2.157121e-16
-2.539726e-21
-1.879443e-26
-1.194414e-31
9.944215e-40
-1.202087e-42
-4.289807e-48
-1.791338e-53
-6.121259e-59
-1.701701e-64
-3.925377e-70
-1.11318e-75
-9.676268e-82
-1.197945e-87
-1.372376e-93
-0.05029355
-1.375661e-06
-2.516838e-11
-3.690024e-16
-4.863123e-21
-4.035582e-26
-2.893063e-31
-1.846496e-36
-3.439804e-43
-1.942032e-47
-8.798085e-53
-3.581183e-58
-1.205114e-63
-3.368608e-69
-1.089143e-74
-1.154449e-80
-1.593584e-86
-2.031262e-92
-0.05450796
-1.756022e-06
-3.776964e-11
-6.408163e-16
-9.529114e-21
-8.763462e-26
-6.985711e-31
-5.0023e-36
-2.711681e-41
8.645922e-48
-4.306359e-52
-2.055932e-57
-8.046286e-63
-2.558703e-68
-9.699649e-74
-1.256448e-79
-2.110668e-85
-3.132783e-91
-0.05901401
-2.177722e-06
-5.524577e-11
-1.08302e-15
-1.839326e-20
-1.89182e-25
-1.683893e-30
-1.350772e-35
-8.276109e-41
-5.738652e-46
-2.410401e-52
-7.998984e-57
-3.59127e-62
-1.457817e-67
-6.703945e-73
-1.056011e-78
-2.097511e-84
-3.66361e-90
-0.0638089
-2.677289e-06
-7.874474e-11
-1.785888e-15
-3.495085e-20
-4.070972e-25
-4.041878e-30
-3.645315e-35
-2.53156e-40
-1.994995e-45
-1.420706e-50
-8.310205e-57
-1.771325e-61
-1.45622e-66
-9.498954e-117
-3.303638e-78
-1.344639e-83
-3.613484e-89
-0.06895828
-3.30493e-06
-1.123894e-10
-2.935023e-15
-6.616193e-20
-8.692174e-25
-9.660611e-30
-9.738877e-35
-7.588618e-40
-6.796185e-45
-5.525432e-50
-3.618942e-55
2.497974e-62
-5.888086e-66
-2.044252e-71
-5.64628e-77
-1.532484e-82
-3.698577e-88
-0.07447694
-4.062166e-06
-1.605908e-10
-4.87583e-15
-1.277586e-19
-1.929064e-24
-2.4599e-29
-2.846949e-34
-2.536186e-39
-2.599734e-44
-2.387614e-49
-1.890008e-54
-1.216671e-59
1.537895e-66
-1.487031e-70
-5.263571e-76
-1.642865e-81
-4.713103e-87
-0.08031337
-5.014224e-06
-2.300145e-10
-8.170384e-15
-2.478904e-19
-4.235736e-24
-6.106737e-29
-7.988649e-34
-7.719552e-39
-8.8392e-44
-9.066553e-49
-8.057096e-54
-6.233937e-59
-6.141998e-64
-1.974674e-70
-4.118801e-75
-1.562338e-80
-5.044738e-86
-0.08662411
-6.151934e-06
-3.268585e-10
-1.366984e-14
-4.993862e-19
-9.437181e-24
-1.554841e-28
-2.310668e-33
-2.630936e-38
-3.431875e-43
-4.043393e-48
-4.143165e-53
-3.680317e-58
-4.648583e-63
-2.023626e-69
1.358888e-75
-5.254097e-80
-5.00296e-85
-0.09336335
-7.49949e-06
-4.587048e-10
-2.322862e-14
-1.939928e-19
-1.553865e-23
-3.011343e-28
-4.943658e-33
-6.406262e-38
-9.410333e-43
-1.28525e-47
-1.535921e-52
-1.572857e-57
-1.599659e-62
-7.862786e-68
-4.887661e-73
-3.273309e-78
-3.06779e-83
-0.1004218
-8.865465e-06
-5.832372e-10
-3.08163e-14
-1.127165e-18
-3.46623e-23
-7.085667e-28
-1.175484e-32
-2.672057e-37
-3.779882e-42
-5.638504e-47
-7.380225e-52
-9.024312e-57
-9.228967e-62
-5.652435e-67
-4.893775e-72
-4.132182e-77
-3.265914e-82
-0.108145
-1.017859e-05
-7.021701e-10
-3.533071e-14
-1.668364e-18
-6.537569e-23
-1.692057e-27
-3.667817e-32
-7.821612e-37
-1.328281e-41
-2.441275e-46
-3.874297e-51
-6.642686e-56
-1.486367e-68
-2.673869e-66
-2.029471e-71
-1.592592e-76
1.175267e-151
-0.116315