/*--------------------------------*- C++ -*----------------------------------*\
| =========                 |                                                 |
| \\      /  F ield         | OpenFOAM: The Open Source CFD Toolbox           |
|  \\    /   O peration     | Version:  2206                                  |
|   \\  /    A nd           | Website:  www.openfoam.com                      |
|    \\/     M anipulation  |                                                 |
\*---------------------------------------------------------------------------*/
FoamFile
{
    version     2.0;
    format      ascii;
    arch        "LSB;label=32;scalar=64";
    class       surfaceVectorField;
    location    "1.4";
    object      ddtCorrDdt0(Ufb);
}
// * * * * * * * * * * * * * * * * * * * * * * * * * * * * * * * * * * * * * //

dimensions      [0 1 -2 0 0 0 0];

internalField   nonuniform List<vector> 
26037
(
(-3.4275e-05 0.0001611022 1.863249e-21)
(-4.069608e-05 5.528292e-05 -5.333942e-27)
(-2.324834e-05 8.603946e-05 -9.569267e-22)
(2.742813e-05 2.813569e-05 1.296316e-23)
(-2.408256e-05 4.462835e-05 1.169476e-27)
(-1.138264e-05 5.208588e-05 1.172132e-27)
(-2.468395e-05 3.571314e-05 -6.838782e-28)
(-2.322645e-05 3.883667e-05 0)
(-2.508198e-05 3.464427e-05 7.615594e-24)
(-2.552982e-05 3.4622e-05 -6.869335e-28)
(-2.536214e-05 3.558607e-05 -2.490388e-27)
(-2.682442e-05 3.490595e-05 3.062621e-26)
(-2.711671e-05 3.647397e-05 -1.423316e-27)
(-2.539269e-05 3.698069e-05 5.166852e-24)
(-2.501605e-05 3.847552e-05 -2.813181e-29)
(3.692031e-05 -5.919116e-06 2.816086e-27)
(-8.650959e-06 4.20101e-05 -2.84022e-29)
(3.067807e-06 2.833864e-05 -1.917899e-27)
(-2.107433e-05 3.562264e-05 0)
(-1.639819e-05 3.363524e-05 8.808384e-29)
(-2.617927e-05 3.322945e-05 -3.13812e-30)
(-2.497356e-05 3.211144e-05 8.485496e-28)
(-2.810355e-05 3.360022e-05 -4.103362e-30)
(-2.873596e-05 3.250902e-05 2.366347e-25)
(-2.905344e-05 3.506713e-05 -2.240448e-30)
(-3.051822e-05 3.41898e-05 -9.662477e-31)
(-3.142431e-05 3.63634e-05 7.018211e-26)
(-2.952195e-05 3.746722e-05 -1.751486e-27)
(6.097744e-06 1.874663e-05 9.166292e-28)
(-5.330933e-06 3.652305e-06 1.915926e-22)
(-1.403864e-05 2.416101e-05 -1.830633e-27)
(-1.858222e-05 1.726616e-05 -8.200541e-23)
(-2.520905e-05 2.781597e-05 6.284096e-24)
(-2.603663e-05 2.355669e-05 -2.903292e-27)
(-2.998006e-05 2.998221e-05 -1.946386e-24)
(-3.105481e-05 2.763132e-05 -3.723602e-28)
(-3.231713e-05 3.235765e-05 7.806238e-28)
(-3.381744e-05 3.066119e-05 -2.512568e-25)
(-3.353211e-05 3.519873e-05 -8.193422e-33)
(-3.545472e-05 3.356797e-05 0)
(-3.640345e-05 3.646682e-05 3.69254e-28)
(-3.404358e-05 3.84003e-05 1.761879e-27)
(-1.702158e-05 1.283581e-05 -1.486792e-27)
(-2.356911e-05 5.366849e-06 2.164416e-27)
(-2.663528e-05 1.98729e-05 -6.676155e-27)
(-3.008375e-05 1.482145e-05 -3.683982e-23)
(-3.232637e-05 2.460184e-05 4.185704e-25)
(-3.472215e-05 2.121336e-05 -2.793571e-23)
(-3.567396e-05 2.840338e-05 -1.201477e-27)
(-3.776238e-05 2.593301e-05 -3.255494e-24)
(-3.755288e-05 3.175948e-05 3.668202e-29)
(-3.932199e-05 2.991595e-05 6.202432e-28)
(-3.851891e-05 3.536607e-05 1.617153e-29)
(-4.082911e-05 3.35883e-05 -8.213475e-32)
(-4.119159e-05 3.703246e-05 1.431423e-27)
(-3.883982e-05 3.859394e-05 -1.740733e-27)
(-3.074599e-05 1.1752e-05 -5.3775e-25)
(-3.34793e-05 5.231049e-06 -1.048984e-30)
(-3.57031e-05 1.866504e-05 -6.137532e-25)
(-3.809567e-05 1.426928e-05 -2.035207e-27)
(-3.936482e-05 2.377101e-05 -7.197072e-27)
(-4.165656e-05 2.060786e-05 -3.762529e-27)
(-4.165712e-05 2.804356e-05 -4.03875e-25)
(-4.39545e-05 2.570951e-05 -3.300432e-24)
(-4.294709e-05 3.196771e-05 -1.812073e-24)
(-4.485403e-05 3.01488e-05 -7.869586e-24)
(-4.344645e-05 3.579111e-05 1.921473e-24)
(-4.600117e-05 3.429909e-05 -1.167213e-27)
(-4.581414e-05 3.817029e-05 7.075807e-26)
(-4.339845e-05 3.913695e-05 1.415249e-27)
(-3.959714e-05 1.044097e-05 1.307329e-29)
(-4.233296e-05 4.788906e-06 0)
(-4.305484e-05 1.782255e-05 4.36655e-25)
(-4.538853e-05 1.355993e-05 -2.774728e-27)
(-4.573608e-05 2.35563e-05 -5.782554e-25)
(-4.804337e-05 2.035177e-05 -3.154481e-27)
(-4.738888e-05 2.836835e-05 3.183252e-25)
(-4.98197e-05 2.59681e-05 -2.82351e-27)
(-4.818506e-05 3.296805e-05 -1.057806e-27)
(-5.066448e-05 3.094792e-05 1.228907e-24)
(-4.836334e-05 3.68809e-05 -2.405448e-25)
(-5.10083e-05 3.54717e-05 -1.032255e-27)
(-5.083105e-05 3.969794e-05 -3.03005e-27)
(-4.800453e-05 4.094032e-05 -2.434193e-24)
(-4.771188e-05 9.485442e-06 -2.786346e-27)
(-5.075519e-05 4.461396e-06 6.536318e-27)
(-5.005852e-05 1.721616e-05 -5.916853e-27)
(-5.277491e-05 1.305298e-05 -4.570009e-25)
(-5.198306e-05 2.362111e-05 -4.113329e-24)
(-5.464033e-05 2.029969e-05 -2.798836e-25)
(-5.31385e-05 2.911782e-05 -3.0855e-27)
(-5.585508e-05 2.652911e-05 -6.752301e-28)
(-5.355876e-05 3.401911e-05 3.02014e-25)
(-5.635391e-05 3.20123e-05 -8.414575e-27)
(-5.348071e-05 3.854963e-05 1.534049e-28)
(-5.646349e-05 3.693766e-05 3.096344e-28)
(-5.587918e-05 4.145435e-05 1.904379e-28)
(-5.297569e-05 4.276368e-05 -7.654317e-29)
(-5.572886e-05 8.963287e-06 3.320642e-27)
(-5.91129e-05 4.31478e-06 -1.223845e-24)
(-5.730247e-05 1.693705e-05 -6.368754e-27)
(-6.046808e-05 1.290175e-05 4.095596e-27)
(-5.854775e-05 2.385832e-05 -3.183101e-27)
(-6.161054e-05 2.054465e-05 5.260432e-28)
(-5.919469e-05 3.011402e-05 -6.053899e-27)
(-6.235634e-05 2.736247e-05 9.312067e-29)
(-5.919977e-05 3.561172e-05 -5.852229e-27)
(-6.23873e-05 3.340469e-05 -2.86824e-25)
(-5.877797e-05 4.030801e-05 2.910589e-25)
(-6.184193e-05 3.871176e-05 3.154235e-28)
(-6.113285e-05 4.350561e-05 1.917546e-28)
(-5.802643e-05 4.478919e-05 -1.610709e-27)
(-6.3939e-05 8.815519e-06 7.310591e-27)
(-6.767943e-05 4.336296e-06 4.856808e-24)
(-6.492434e-05 1.707615e-05 1.098958e-26)
(-6.860445e-05 1.313203e-05 -4.106209e-24)
(-6.556093e-05 2.45904e-05 4.235432e-25)
(-6.917922e-05 2.120604e-05 -2.164429e-24)
(-6.560026e-05 3.136953e-05 -1.39124e-26)
(-6.927966e-05 2.864041e-05 -7.955394e-27)
(-6.505083e-05 3.711592e-05 2.030916e-25)
(-6.853211e-05 3.527618e-05 2.521346e-24)
(-6.423433e-05 4.237467e-05 1.590172e-28)
(-6.762622e-05 4.084651e-05 1.589682e-28)
(-6.640502e-05 4.580588e-05 0)
(-6.323628e-05 4.704888e-05 3.349666e-27)
(-7.255587e-05 9.052075e-06 -4.715097e-29)
(-7.676099e-05 4.534363e-06 -8.249392e-27)
(-7.305779e-05 1.765531e-05 1.228124e-26)
(-7.725296e-05 1.375736e-05 8.206762e-27)
(-7.303966e-05 2.565871e-05 -3.843093e-27)
(-7.73096e-05 2.241652e-05 1.31337e-26)
(-7.230645e-05 3.27589e-05 -7.991765e-27)
(-7.651481e-05 3.059232e-05 6.335195e-24)
(-7.120616e-05 3.892729e-05 -3.541043e-30)
(-7.503252e-05 3.764181e-05 -9.479869e-24)
(-6.98821e-05 4.469913e-05 0)
(-7.382556e-05 4.345951e-05 0)
(-7.177339e-05 4.865472e-05 0)
(-6.835581e-05 4.958732e-05 4.373411e-27)
(-8.184543e-05 9.56067e-06 0)
(-8.657131e-05 4.891414e-06 0)
(-8.187411e-05 1.894956e-05 9.055362e-27)
(-8.68542e-05 1.482806e-05 -9.938075e-27)
(-8.110061e-05 2.75836e-05 2.292305e-28)
(-8.617284e-05 2.434053e-05 -1.013833e-23)
(-7.960987e-05 3.53901e-05 -8.967387e-27)
(-8.448462e-05 3.323488e-05 8.590087e-28)
(-7.766999e-05 4.257608e-05 3.733942e-30)
(-8.254604e-05 4.079187e-05 -2.633671e-24)
(-7.540938e-05 4.777956e-05 0)
(-7.940446e-05 4.705175e-05 0)
(-7.676244e-05 5.218048e-05 1.06204e-26)
(-7.324922e-05 5.237437e-05 -4.479943e-27)
(-9.210464e-05 1.057211e-05 -9.933941e-27)
(-9.758145e-05 5.409591e-06 0)
(-9.162693e-05 2.08212e-05 2.176345e-29)
(-9.746897e-05 1.642926e-05 1.506293e-23)
(-9.009894e-05 3.039979e-05 1.98743e-26)
(-9.609365e-05 2.701241e-05 9.913272e-27)
(-8.762309e-05 3.940275e-05 -8.895951e-25)
(-9.370852e-05 3.681295e-05 -4.289982e-24)
(-8.452414e-05 4.642825e-05 -1.019562e-26)
(-8.992188e-05 4.513878e-05 -2.130009e-26)
(-8.102684e-05 5.298197e-05 1.061674e-26)
(-8.634409e-05 5.186147e-05 1.127854e-26)
(-8.17472e-05 5.715533e-05 1.096381e-23)
(-7.747594e-05 5.759417e-05 4.116681e-24)
(-0.0001035821 1.157877e-05 -1.078603e-26)
(-0.0001097537 6.078618e-06 -1.147254e-26)
(-0.0001026376 2.317102e-05 -3.254231e-25)
(-0.0001095739 1.853365e-05 -1.078779e-26)
(-0.000100183 3.410524e-05 1.07433e-26)
(-0.000107498 3.063256e-05 -1.169651e-28)
(-9.652218e-05 4.35635e-05 -3.374509e-28)
(-0.0001034691 4.160389e-05 1.085179e-26)
(-9.205341e-05 5.2397e-05 1.925264e-28)
(-9.91759e-05 5.082514e-05 3.829844e-24)
(-8.667569e-05 5.856326e-05 1.12842e-26)
(-9.293654e-05 5.865544e-05 -7.937708e-24)
(-8.588599e-05 6.452036e-05 7.488121e-24)
(-8.087081e-05 6.230151e-05 5.49436e-30)
(-0.0001165704 1.331326e-05 -1.147476e-26)
(-0.0001238167 6.906502e-06 2.660171e-23)
(-0.0001150956 2.628759e-05 -5.573832e-29)
(-0.0001232011 2.124125e-05 0)
(-0.0001117177 3.838734e-05 2.976158e-26)
(-0.0001201899 3.523572e-05 -1.539608e-28)
(-0.0001067676 5.024597e-05 -2.444934e-26)
(-0.0001157358 4.770588e-05 1.346159e-26)
(-0.0001003298 5.94794e-05 -1.172088e-26)
(-0.0001089268 5.848251e-05 2.04667e-23)
(-9.251037e-05 6.645663e-05 -3.606932e-28)
(-0.0001004377 6.794249e-05 1.243253e-26)
(-9.095734e-05 7.457143e-05 1.279367e-27)
(-8.40285e-05 7.104061e-05 -1.066021e-28)
(-0.0001315328 1.569697e-05 -1.211244e-26)
(-0.0001404393 8.139799e-06 -1.210686e-26)
(-0.0001292661 3.044207e-05 -9.810126e-29)
(-0.0001387562 2.482819e-05 -1.280662e-26)
(-0.0001251042 4.453607e-05 -4.051777e-25)
(-0.0001350224 4.06312e-05 -9.812628e-29)
(-0.0001187259 5.773597e-05 1.495091e-23)
(-0.0001297272 5.532353e-05 -1.295262e-23)
(-0.0001099306 6.876853e-05 -1.149859e-26)
(-0.0001207376 6.857194e-05 -1.139184e-26)
(-9.958343e-05 7.743596e-05 1.407463e-26)
(-0.0001097676 7.970359e-05 2.332384e-28)
(-9.736397e-05 8.784289e-05 -1.964253e-23)
(-8.790277e-05 8.321675e-05 2.876145e-26)
(-0.0001489665 1.763369e-05 -1.280044e-26)
(-0.0001591516 9.67431e-06 0)
(-0.0001461542 3.546288e-05 -1.28092e-26)
(-0.0001575752 2.901249e-05 3.250992e-23)
(-0.0001407817 5.287755e-05 1.353065e-26)
(-0.0001533705 4.731999e-05 -3.044741e-29)
(-0.0001326 6.74541e-05 1.985842e-24)
(-0.000145181 6.482035e-05 1.349832e-26)
(-0.0001215375 8.06865e-05 4.055236e-28)
(-0.0001346636 8.07803e-05 1.716256e-28)
(-0.0001085449 9.152451e-05 1.997094e-24)
(-0.0001214107 9.411943e-05 2.331371e-28)
(-0.0001058625 0.0001045662 1.558724e-26)
(-9.347845e-05 9.921684e-05 1.598291e-26)
(-0.0001693876 2.095087e-05 -2.646136e-26)
(-0.0001813672 1.126346e-05 -1.329986e-26)
(-0.0001660118 4.174739e-05 -2.650996e-26)
(-0.0001795443 3.384878e-05 3.620951e-23)
(-0.0001591098 6.094761e-05 -4.356064e-25)
(-0.0001736844 5.571027e-05 -6.398977e-29)
(-0.0001490387 7.900796e-05 -4.74092e-29)
(-0.0001643288 7.635119e-05 -7.478487e-29)
(-0.0001357722 9.533528e-05 0)
(-0.0001517955 9.507592e-05 0)
(-0.0001200025 0.0001086928 0)
(-0.0001357615 0.0001113378 -1.638576e-26)
(-0.0001172104 0.0001246311 -3.729945e-28)
(-0.0001016517 0.0001190273 -3.256244e-28)
(-0.0001933078 2.454461e-05 1.549587e-25)
(-0.0002073862 1.308718e-05 4.807868e-23)
(-0.000189026 4.864306e-05 -3.922856e-25)
(-0.0002050339 3.968247e-05 -2.71141e-26)
(-0.000180753 7.158345e-05 -3.144628e-25)
(-0.000197973 6.553448e-05 -3.475612e-29)
(-0.0001689257 9.310566e-05 -2.857004e-29)
(-0.0001871631 8.969642e-05 -4.022952e-29)
(-0.0001531169 0.0001125113 -1.657624e-26)
(-0.0001721756 0.0001118639 0)
(-0.000134471 0.0001289047 -2.274743e-24)
(-0.0001533678 0.0001314352 3.67586e-23)
(-0.0001317044 0.0001478768 -4.850667e-28)
(-0.0001129967 0.0001421589 -2.386322e-24)
(-0.0002213049 2.889006e-05 2.96065e-25)
(-0.0002380026 1.526227e-05 -2.641473e-26)
(-0.0002161248 5.712377e-05 -4.911113e-25)
(-0.000234915 4.648087e-05 5.034727e-23)
(-0.0002064047 8.426314e-05 -1.287929e-24)
(-0.0002267289 7.688088e-05 -1.407844e-26)
(-0.0001924655 0.0001094365 -1.231298e-29)
(-0.000213917 0.0001052424 -1.211596e-29)
(-0.0001739653 0.0001323774 -1.708137e-26)
(-0.0001963505 0.0001315433 -5.003701e-28)
(-0.0001522923 0.0001521806 -1.698152e-26)
(-0.0001746531 0.0001543449 -1.736046e-26)
(-0.000149602 0.0001743826 -6.247583e-29)
(-0.0001275605 0.0001685779 -2.640121e-24)
(-0.0002542061 3.434386e-05 -3.998983e-26)
(-0.000274391 1.803802e-05 5.762106e-23)
(-0.0002478544 6.715529e-05 -4.098596e-26)
(-0.000269676 5.453339e-05 6.557521e-23)
(-0.0002365489 9.878622e-05 -1.408747e-26)
(-0.0002602813 8.989801e-05 5.959644e-23)
(-0.0002202103 0.0001284124 -4.958342e-28)
(-0.0002454885 0.0001231242 -1.490392e-26)
(-0.0001991559 0.0001552844 1.971713e-23)
(-0.0002255065 0.0001539958 -6.078133e-28)
(-0.0001738443 0.0001788272 6.252962e-24)
(-0.0002004803 0.0001809721 -1.805969e-26)
(-0.0001710426 0.0002045925 1.952452e-26)
(-0.0001453512 0.000198416 4.975504e-29)
(-0.0002927444 3.953923e-05 -2.595943e-25)
(-0.0003163053 2.146489e-05 -1.254863e-26)
(-0.0002850367 7.830683e-05 6.166687e-25)
(-0.0003107666 6.397523e-05 7.167656e-23)
(-0.0002718795 0.0001153693 -4.246806e-26)
(-0.0002996324 0.0001048456 6.838452e-23)
(-0.0002530887 0.0001499334 2.301581e-24)
(-0.0002823629 0.0001436621 6.404292e-23)
(-0.0002290517 0.0001813905 -1.744368e-26)
(-0.0002592652 0.0001794444 -1.092894e-28)
(-0.0001991959 0.00020931 2.368464e-27)
(-0.0002303063 0.0002115611 4.771431e-23)
(-0.0001962397 0.0002391303 -4.223487e-23)
(-0.0001664548 0.0002323318 -3.59194e-24)
(-0.0003376745 4.598081e-05 -1.228462e-26)
(-0.0003650403 2.527419e-05 1.042309e-26)
(-0.000328642 9.124642e-05 4.925958e-25)
(-0.0003587677 7.476138e-05 -1.228641e-26)
(-0.0003132202 0.0001345259 -4.191146e-26)
(-0.0003456391 0.0001221208 -1.319836e-26)
(-0.0002914125 0.0001749161 -2.876254e-26)
(-0.0003255238 0.0001673803 7.348184e-23)
(-0.0002635961 0.000211644 -1.743053e-26)
(-0.0002987458 0.0002090923 1.510493e-26)
(-0.0002289704 0.0002442688 -1.751556e-26)
(-0.0002651527 0.0002465853 -1.77999e-26)
(-0.000225754 0.0002786944 5.239758e-23)
(-0.0001911549 0.0002711404 -2.234383e-26)
(-0.0003900038 5.36287e-05 1.042498e-26)
(-0.0004218646 2.949153e-05 -9.685126e-23)
(-0.0003794814 0.0001062188 0)
(-0.0004145622 8.702181e-05 0)
(-0.0003614898 0.0001565773 -2.57272e-28)
(-0.0003992335 0.0001419954 0)
(-0.0003361771 0.0002036278 3.236257e-24)
(-0.0003758843 0.0001946459 -8.517204e-23)
(-0.000303896 0.0002464052 1.541526e-26)
(-0.0003448446 0.000243312 -8.081232e-23)
(-0.0002638919 0.0002842921 -2.037707e-26)
(-0.0003058701 0.0002873695 -1.710466e-26)
(-0.0002605372 0.0003237411 -2.024498e-26)
(-0.0002200492 0.0003157999 -4.217018e-26)
(-0.0004508592 6.236518e-05 1.732924e-26)
(-0.0004879331 3.423048e-05 -1.100266e-22)
(-0.0004385878 0.0001233969 0)
(-0.0004793421 0.0001009645 -1.139363e-28)
(-0.0004177156 0.0001818809 1.277316e-26)
(-0.0004615391 0.0001647413 8.573152e-27)
(-0.0003884745 0.0002366359 -3.415647e-24)
(-0.0004345769 0.0002258382 1.229107e-26)
(-0.0003510873 0.0002867072 1.305893e-26)
(-0.0003990095 0.0002823803 -8.608399e-23)
(-0.000305832 0.0003306785 -1.721192e-26)
(-0.0003550733 0.000333793 6.681412e-23)
(-0.0003026622 0.0003765542 0)
(-0.0002541338 0.0003674111 2.352556e-26)
(-0.0005214684 7.230004e-05 6.21847e-27)
(-0.000564508 3.957126e-05 6.328548e-27)
(-0.0005071744 0.0001430067 7.148664e-25)
(-0.0005544145 0.0001167979 -4.54921e-27)
(-0.000483037 0.0002107706 8.091111e-27)
(-0.0005337926 0.000190689 -1.170913e-22)
(-0.0004493702 0.0002742202 4.128635e-24)
(-0.0005026812 0.0002614491 -4.835962e-28)
(-0.0004066633 0.0003320985 -1.684629e-26)
(-0.0004616922 0.000326949 1.047571e-22)
(-0.0003554779 0.0003833971 -1.669162e-26)
(-0.0004113134 0.0003860397 -1.970786e-26)
(-0.0003509064 0.0004374154 -1.829989e-27)
(-0.0002939628 0.0004270064 2.542102e-26)
(-0.0006031866 8.354594e-05 -4.432494e-27)
(-0.0006529651 4.554558e-05 4.274096e-28)
(-0.000586604 0.0001653282 1.748808e-27)
(-0.0006412567 0.0001347044 1.399469e-22)
(-0.0005587615 0.0002437191 6.190337e-27)
(-0.0006174275 0.000220207 9.127426e-27)
(-0.0005200468 0.0003172389 -1.304033e-26)
(-0.000581673 0.000302012 0)
(-0.0004710777 0.0003845371 1.125656e-23)
(-0.0005346856 0.0003779038 -1.112038e-26)
(-0.0004123976 0.0004443986 1.648766e-23)
(-0.0004770117 0.00044653 -3.424121e-27)
(-0.000407668 0.0005067864 -4.19975e-27)
(-0.000341218 0.0004958112 1.037498e-28)
(-0.0006975099 9.614004e-05 -4.190762e-28)
(-0.0007547021 5.207771e-05 1.561565e-22)
(-0.0006784234 0.000190657 2.092335e-27)
(-0.0007415986 0.0001547679 2.750319e-27)
(-0.000646366 0.0002811342 2.942209e-27)
(-0.0007139902 0.0002537098 -1.48875e-22)
(-0.0006020159 0.0003660996 1.920124e-27)
(-0.0006730207 0.000348004 0)
(-0.0005460188 0.0004440746 -1.274631e-23)
(-0.0006193446 0.0004356877 1.920399e-27)
(-0.0004789242 0.000513661 1.815301e-23)
(-0.0005535169 0.0005154146 -1.094016e-26)
(-0.0004746079 0.0005866155 3.890243e-26)
(-0.0003978377 0.0005739979 2.160091e-26)
(-0.0008061011 0.000110396 8.68249e-27)
(-0.0008714931 5.89799e-05 1.596471e-26)
(-0.0007843076 0.0002193733 2.437913e-27)
(-0.0008572216 0.0001770544 1.610705e-22)
(-0.0007474031 0.0003234787 -1.160443e-27)
(-0.0008251024 0.0002917186 -1.159534e-27)
(-0.0006967771 0.0004213916 0)
(-0.0007783078 0.0003999614 5.271816e-29)
(-0.0006330922 0.0005115305 -1.091971e-26)
(-0.0007172503 0.000500855 2.951102e-27)
(-0.0005569109 0.0005927325 2.95303e-26)
(-0.0006430376 0.0005925952 1.194825e-22)
(-0.000556474 0.0006744285 -5.490607e-23)
(-0.0004686254 0.0006631397 -1.154155e-22)
(-0.0009305853 0.0001271699 -2.438805e-24)
(-0.001006023 6.694607e-05 1.954319e-22)
(-0.0009057848 0.000250988 9.315574e-27)
(-0.0009884094 0.0002014467 9.338762e-27)
(-0.0008637345 0.000371142 5.267503e-29)
(-0.0009532348 0.0003341718 1.335558e-26)
(-0.0008058578 0.0004836857 -1.31245e-23)
(-0.0008993023 0.0004587372 -1.930914e-22)
(-0.000733365 0.0005871629 -1.616031e-26)
(-0.0008296562 0.0005744903 5.349409e-27)
(-0.0006469878 0.0006793421 2.053888e-23)
(-0.0007446315 0.0006798838 1.622899e-22)
(-0.0006447637 0.0007724862 1.562589e-22)
(-0.0005475379 0.0007576912 7.283971e-23)
(-0.001073231 0.0001454784 1.783811e-26)
(-0.001161218 7.646532e-05 1.767571e-26)
(-0.001044556 0.0002873215 1.338887e-26)
(-0.001138737 0.0002295434 0)
(-0.0009972538 0.0004234272 -1.306092e-24)
(-0.001098206 0.0003808138 2.178646e-22)
(-0.0009315577 0.00055395 -4.088252e-27)
(-0.001039419 0.0005245805 -6.481049e-27)
(-0.0008486721 0.0006733144 -5.588761e-27)
(-0.0009592357 0.0006580069 2.055491e-22)
(-0.0007500244 0.0007803623 -1.934247e-26)
(-0.0008625544 0.0007794298 1.809912e-22)
(-0.0007490693 0.0008875196 -3.699299e-27)
(-0.0006361181 0.0008731463 -5.125046e-26)
(-0.001236302 0.0001642452 0)
(-0.001336402 8.768955e-05 3.62018e-26)
(-0.001202473 0.0003274939 3.939998e-26)
(-0.001310356 0.0002625774 -3.198305e-26)
(-0.001149449 0.0004842041 3.925229e-26)
(-0.001264505 0.0004313416 2.590924e-22)
(-0.001075924 0.0006315605 1.664483e-26)
(-0.00119728 0.0005969658 0)
(-0.0009820824 0.0007703303 1.75508e-26)
(-0.001109504 0.0007515363 1.764833e-22)
(-0.0008700852 0.0008942783 8.527514e-27)
(-0.0009988621 0.0008915776 8.880917e-28)
(-0.0008714742 0.001015601 -1.462621e-22)
(-0.0007415775 0.001003078 7.758095e-27)
(-0.00142066 0.0001851709 2.190331e-24)
(-0.001533687 9.913007e-05 2.248604e-22)
(-0.001384155 0.000370229 -5.982047e-26)
(-0.001507838 0.0002971643 -2.301492e-22)
(-0.001324326 0.000550358 -2.761822e-26)
(-0.001456367 0.0004899076 -4.271481e-22)
(-0.001240615 0.0007211088 1.551168e-26)
(-0.001379544 0.000675573 -6.729432e-26)
(-0.001135187 0.0008774199 1.550801e-26)
(-0.001278271 0.0008550388 3.32377e-26)
(-0.001008459 0.001021395 1.642551e-26)
(-0.001156614 0.001017527 -7.234871e-27)
(-0.001009442 0.001160138 2.454515e-26)
(-0.0008632984 0.001144426 -6.66317e-23)
(-0.001630732 0.0002086473 3.192293e-27)
(-0.001755486 0.000110277 4.712198e-26)
(-0.00159023 0.0004171774 -1.59875e-25)
(-0.001729611 0.0003329967 -4.488315e-26)
(-0.001524287 0.0006222478 -1.845044e-25)
(-0.001676303 0.0005535349 -1.454417e-22)
(-0.001430146 0.0008193079 2.942001e-23)
(-0.001590393 0.0007642414 -5.51564e-22)
(-0.001309697 0.001001027 1.049845e-26)
(-0.001473445 0.0009699479 2.869706e-22)
(-0.001166719 0.001163771 1.697635e-23)
(-0.001334152 0.001158757 -2.437218e-26)
(-0.001170306 0.001325498 -3.068382e-26)
(-0.001000258 0.001307945 -7.379335e-23)
(-0.001866302 0.0002356139 2.620738e-24)
(-0.002005408 0.0001226313 3.010702e-29)
(-0.001823838 0.0004681328 -5.652235e-26)
(-0.001975857 0.000372384 9.469135e-29)
(-0.00175197 0.000697865 1.46698e-23)
(-0.001919588 0.0006210026 -1.17709e-25)
(-0.00164516 0.0009266775 -5.195411e-23)
(-0.001827763 0.0008648501 -8.011169e-26)
(-0.00151051 0.001138286 3.159439e-26)
(-0.001698136 0.001093702 1.304327e-25)
(-0.001347712 0.001329627 7.018702e-23)
(-0.001540814 0.001315864 -3.051933e-26)
(-0.001350982 0.001513018 -3.874291e-26)
(-0.001157928 0.001492602 4.781091e-23)
(-0.002128777 0.0002625326 -2.917875e-24)
(-0.002283129 0.0001358468 2.352203e-28)
(-0.002085068 0.0005255258 -6.085072e-26)
(-0.002252913 0.0004132386 7.252144e-28)
(-0.002007892 0.0007869618 -6.245482e-24)
(-0.002194883 0.0006929933 -2.72716e-22)
(-0.00189422 0.001041524 -1.60438e-22)
(-0.002099511 0.0009715523 -2.51405e-22)
(-0.001743394 0.001286165 -7.084249e-23)
(-0.001960916 0.001237685 -7.503335e-26)
(-0.001556698 0.001516838 -1.335642e-26)
(-0.001786944 0.001486686 -1.67171e-22)
(-0.001562479 0.001722941 0)
(-0.001339278 0.001710586 6.293778e-27)
(-0.002419277 0.0002897972 0)
(-0.002588662 0.0001494024 5.971131e-28)
(-0.002374845 0.0005819048 -8.308801e-26)
(-0.002558675 0.0004554673 -1.820586e-27)
(-0.002297493 0.0008750248 -1.726454e-25)
(-0.002500492 0.0007664843 -8.932858e-26)
(-0.002178691 0.001168806 2.163206e-23)
(-0.002406305 0.001078223 -8.929534e-26)
(-0.002016294 0.001453004 2.849551e-22)
(-0.002265837 0.001391599 -2.885641e-22)
(-0.001803794 0.001718993 -1.361107e-25)
(-0.002073356 0.001682684 -1.103986e-25)
(-0.00182163 0.001958369 6.336392e-26)
(-0.001550856 0.00196106 9.74256e-27)
(-0.002739181 0.0003171015 -2.660747e-24)
(-0.00292166 0.0001632285 1.345261e-25)
(-0.002696504 0.0006380117 -9.838644e-24)
(-0.002891926 0.0004974769 -3.872906e-27)
(-0.002622308 0.0009680152 -6.221615e-27)
(-0.002840891 0.0008403227 1.170592e-25)
(-0.002505125 0.001300447 -1.611815e-25)
(-0.002748346 0.001190515 0)
(-0.002338202 0.001627603 -1.407926e-25)
(-0.002602527 0.001546336 -6.000639e-22)
(-0.002098547 0.001945458 -8.097878e-23)
(-0.002394647 0.001902568 1.503562e-25)
(-0.002114959 0.002221298 4.157328e-25)
(-0.001808536 0.002226721 -1.181461e-22)
(-0.003085665 0.0003375882 -1.514887e-23)
(-0.003274074 0.0001744084 2.51027e-22)
(-0.003049723 0.0006945209 1.210503e-25)
(-0.003259139 0.0005338022 1.487022e-25)
(-0.002980867 0.001060318 1.233123e-25)
(-0.003213542 0.0009107642 2.543403e-22)
(-0.00286724 0.001434519 -1.269214e-25)
(-0.003127791 0.001302123 2.152246e-26)
(-0.002696021 0.001817355 -1.978481e-24)
(-0.002991342 0.001706835 -7.033441e-26)
(-0.002451261 0.002193354 -4.222322e-22)
(-0.002789334 0.002127605 -5.441332e-22)
(-0.002498089 0.002523992 5.255307e-25)
(-0.002116131 0.002554323 -3.40883e-22)
(-0.003456354 0.0003644646 2.568974e-24)
(-0.003652723 0.000182543 1.573164e-25)
(-0.003431825 0.000744864 2.975975e-25)
(-0.003645618 0.0005610307 5.53098e-23)
(-0.003374465 0.001147236 1.68452e-25)
(-0.003617534 0.0009704228 -2.482366e-26)
(-0.003271228 0.001568458 1.876849e-23)
(-0.003548342 0.001403885 9.786714e-27)
(-0.003107085 0.002003231 4.128727e-23)
(-0.003425247 0.001860894 2.407194e-25)
(-0.002865332 0.00244195 1.139726e-22)
(-0.00322841 0.002345393 3.631438e-26)
(-0.002952403 0.002857461 1.704514e-25)
(-0.002492678 0.002905103 -1.509858e-22)
(-0.003842986 0.0003716366 -1.706256e-25)
(-0.004039518 0.0001881421 -2.088854e-25)
(-0.003837088 0.0007785295 3.013792e-23)
(-0.004054243 0.0005796274 9.085359e-22)
(-0.003802722 0.001217925 -2.708169e-23)
(-0.004051046 0.001004776 2.811149e-22)
(-0.003724966 0.001687193 1.721992e-25)
(-0.004008798 0.001477408 -3.951991e-25)
(-0.003588878 0.002189414 4.747501e-23)
(-0.003919592 0.001985597 4.929954e-22)
(-0.003366229 0.002744407 4.043185e-26)
(-0.003779959 0.002539102 -9.053882e-26)
(-0.003528747 0.00317295 -1.41394e-24)
(-0.003013392 0.003298172 -4.86606e-24)
(-0.004233767 0.0003812039 -5.944145e-25)
(-0.004431454 0.0001863315 6.517299e-22)
(-0.004253819 0.0007901697 2.072624e-22)
(-0.004461468 0.0005826303 -3.823774e-25)
(-0.004255093 0.001252912 -5.527491e-25)
(-0.004498432 0.001013848 -1.678404e-25)
(-0.004217017 0.00176236 -1.664226e-25)
(-0.004498204 0.001499265 7.276482e-22)
(-0.00413397 0.002313366 1.500597e-22)
(-0.004450909 0.002049188 -2.116477e-25)
(-0.003967472 0.002937959 -1.505333e-24)
(-0.004386038 0.002677016 3.967205e-23)
(-0.004232375 0.003437904 1.469055e-19)
(-0.003645741 0.003660996 5.789338e-21)
(-0.004633083 0.000372137 2.239949e-23)
(-0.004805404 0.0001764422 2.637327e-26)
(-0.004676562 0.0007841407 2.486e-27)
(-0.004861798 0.0005549646 -2.114976e-27)
(-0.004718799 0.00123885 -9.288449e-27)
(-0.004930352 0.0009833485 -8.274342e-27)
(-0.004732914 0.001774423 -4.431642e-25)
(-0.004998193 0.001476123 -1.166643e-21)
(-0.004708133 0.002363165 -1.697844e-23)
(-0.005002046 0.002042446 -1.424626e-21)
(-0.004597485 0.003073609 5.568057e-20)
(-0.005031313 0.002759266 8.296658e-20)
(-0.004738427 0.003761342 5.607176e-19)
(-0.004254583 0.003791435 1.171127e-18)
(-0.0050179 0.0003412626 2.548551e-25)
(-0.005135566 0.0001556957 -1.896798e-22)
(-0.005098801 0.000728175 -7.135546e-23)
(-0.005223872 0.0004927041 -4.554626e-27)
(-0.005187551 0.001177582 5.646912e-25)
(-0.005339553 0.0008887039 -2.282532e-26)
(-0.005275471 0.001728331 3.481906e-22)
(-0.005498596 0.001381467 1.080748e-23)
(-0.005279005 0.002305266 4.602724e-19)
(-0.005486294 0.002036017 4.017156e-19)
(-0.005072363 0.002982246 -2.055286e-18)
(-0.005409603 0.002932404 -3.402879e-19)
(-0.005106969 0.004586745 -1.828363e-18)
(-0.004217405 0.003961261 2.587553e-18)
(-0.005330427 0.0002880662 2.813463e-25)
(-0.005397524 0.0001256704 2.813846e-25)
(-0.005452726 0.00062228 -1.462968e-26)
(-0.005517281 0.0004030786 -6.885665e-27)
(-0.005611481 0.001037072 -3.078118e-22)
(-0.005686608 0.0007453094 -4.624088e-24)
(-0.00573758 0.00156257 2.253974e-19)
(-0.005925813 0.001242549 -2.691235e-19)
(-0.005697546 0.002256279 5.241109e-19)
(-0.005856816 0.002082121 8.673947e-19)
(-0.004914911 0.003074978 -8.297237e-19)
(-0.005592593 0.003726228 -4.96815e-18)
(-0.003894793 0.005854568 -5.675712e-18)
(-0.003210779 0.004830489 -8.391442e-19)
(-0.005551652 0.0002215236 -6.872027e-27)
(-0.005569444 9.043072e-05 0)
(-0.005715124 0.0004956094 -1.680249e-22)
(-0.0057252 0.0003025895 -3.701595e-24)
(-0.005890265 0.0008362579 9.229167e-20)
(-0.005930214 0.0006182243 1.330928e-19)
(-0.005941947 0.001370666 -5.183542e-19)
(-0.006157869 0.001204361 1.9064e-19)
(-0.005369755 0.002125237 -2.269e-18)
(-0.005928008 0.002718276 -4.064176e-19)
(-0.003701354 0.004048129 6.265091e-18)
(-0.004256478 0.005304426 -1.603639e-18)
(-0.00107734 0.00729898 6.538327e-18)
(-0.001380802 0.00619352 -4.583028e-18)
(-0.005681357 0.0001501803 -3.673647e-24)
(-0.005615605 4.528157e-05 3.11721e-25)
(-0.005886384 0.0003586319 -1.955519e-19)
(-0.005828996 0.0001890227 1.405769e-20)
(-0.006019843 0.0007116158 -2.017851e-18)
(-0.006061009 0.0005593421 -7.173505e-20)
(-0.005638907 0.001249473 -3.24634e-18)
(-0.006018921 0.001696255 -1.524478e-18)
(-0.004100721 0.003010662 1.025181e-18)
(-0.00482445 0.004286333 -2.305167e-19)
(-0.001783205 0.005925466 -7.812101e-18)
(-0.00153976 0.006927652 -4.00032e-19)
(0.000773799 0.009048463 -1.845427e-18)
(-0.0002263037 0.006642308 4.909765e-17)
(-0.005696184 4.41146e-05 -7.147918e-23)
(-0.005532111 -1.552682e-05 -1.88921e-21)
(-0.005899725 0.0001847426 1.509443e-19)
(-0.005797787 0.0001000855 -9.523759e-20)
(-0.005777236 0.0006038307 -3.171163e-19)
(-0.005923624 0.0007984655 4.018271e-20)
(-0.004593087 0.001910574 -4.858213e-18)
(-0.00499084 0.003211878 -6.38668e-19)
(-0.002224594 0.005387524 -2.670759e-18)
(-0.002491801 0.006210556 -7.786807e-18)
(-0.0001829052 0.007015237 -1.377312e-17)
(0.0004440198 0.008750303 6.920141e-20)
(0.000882464 0.01055475 1.253622e-17)
(0.0004534478 0.006019442 -3.371924e-17)
(-0.005528766 -0.0001153532 -1.95149e-20)
(-0.005287588 -5.412329e-05 7.348884e-20)
(-0.005601148 2.567153e-05 1.120043e-19)
(-0.005504694 0.0001860052 -1.520244e-19)
(-0.004866362 0.0009239273 -1.230676e-20)
(-0.005246599 0.001783647 6.646284e-20)
(-0.003034496 0.004072228 2.572235e-18)
(-0.003174984 0.005122595 1.323902e-18)
(-0.0008248889 0.007274768 8.938859e-18)
(-0.0005026883 0.008040848 -4.071217e-18)
(0.000242033 0.006802007 1.683921e-17)
(0.0008583487 0.01057663 5.269831e-18)
(0.0002543404 0.01147624 1.753886e-17)
(0.0003974825 0.005417573 1.223581e-16)
(-0.005141416 -0.000235581 1.18051e-19)
(-0.004886961 -6.136658e-06 1.55296e-19)
(-0.004891182 0.0001768677 5.82993e-19)
(-0.004874804 0.0006803454 -9.848798e-19)
(-0.003598299 0.002424806 -2.057215e-18)
(-0.004059942 0.003435295 -3.704808e-19)
(-0.001509497 0.006469086 3.425967e-18)
(-0.001616074 0.006827809 2.191878e-18)
(-9.212869e-06 0.007630871 2.105213e-17)
(0.0002878092 0.009868652 1.884934e-18)
(0.0004392621 0.006412968 3.874969e-17)
(0.0008001759 0.0118114 4.90912e-18)
(0.0011658 0.01264134 2.462793e-17)
(0.0004558508 0.005320311 -7.708512e-17)
(-0.004538788 -0.0001289583 2.257223e-19)
(-0.004318142 0.000188786 4.867724e-20)
(-0.00391103 0.0009865987 2.603998e-19)
(-0.004085638 0.001669476 7.985969e-19)
(-0.00236522 0.004471644 3.057354e-18)
(-0.002548198 0.005121873 -4.495353e-19)
(-0.000649938 0.007831903 6.165822e-19)
(-0.000646324 0.008463326 -4.118233e-18)
(0.0002650826 0.007553458 -4.237986e-18)
(0.0004888531 0.01153001 -1.210922e-18)
(0.0006834766 0.006353959 -1.104308e-17)
(0.0009481669 0.01293274 -2.160281e-18)
(0.001799943 0.01405932 3.650616e-19)
(0.001287771 0.005657329 4.804548e-18)
(-0.003783492 0.0001694006 -6.23369e-19)
(-0.003539316 0.0005332291 1.71862e-19)
(-0.002935386 0.002284356 6.920312e-19)
(-0.003047935 0.003014735 3.626189e-19)
(-0.001395352 0.006558688 -4.981672e-18)
(-0.001621831 0.006678826 1.486728e-18)
(-0.0002040706 0.008566545 6.844176e-18)
(-0.0001514695 0.0101468 2.185622e-18)
(0.0003811128 0.007776811 2.147797e-17)