/*--------------------------------*- C++ -*----------------------------------*\
| =========                 |                                                 |
| \\      /  F ield         | OpenFOAM: The Open Source CFD Toolbox           |
|  \\    /   O peration     | Version:  2206                                  |
|   \\  /    A nd           | Website:  www.openfoam.com                      |
|    \\/     M anipulation  |                                                 |
\*---------------------------------------------------------------------------*/
FoamFile
{
    version     2.0;
    format      ascii;
    arch        "LSB;label=32;scalar=64";
    class       surfaceVectorField;
    location    "1.4";
    object      ddtCorrDdt0(Ufa);
}
// * * * * * * * * * * * * * * * * * * * * * * * * * * * * * * * * * * * * * //

dimensions      [0 1 -2 0 0 0 0];

internalField   nonuniform List<vector> 
26037
(
(5.825934e-06 -0.0001244168 5.944353e-24)
(-3.192147e-05 -0.0001297054 1.707923e-27)
(5.164463e-07 -5.078548e-05 -1.065837e-24)
(-1.537369e-05 -5.714032e-05 1.996102e-26)
(-8.489503e-08 -2.440801e-05 -2.221142e-29)
(-5.152028e-06 -2.772025e-05 -2.226186e-29)
(-1.452752e-07 -1.519205e-05 -1.5341e-31)
(-2.317038e-06 -1.715438e-05 0)
(-1.658081e-07 -1.133547e-05 2.592248e-27)
(-1.200333e-06 -1.267161e-05 -1.540761e-31)
(-1.758833e-07 -8.600079e-06 -6.055816e-31)
(-7.239823e-07 -9.628938e-06 1.072747e-29)
(-4.963223e-07 -7.347605e-06 -3.492515e-31)
(-1.78619e-07 -6.502551e-06 9.087552e-28)
(-5.38309e-05 -6.188922e-05 -2.356709e-32)
(-4.896492e-05 -4.792178e-05 5.356884e-31)
(-2.129019e-05 -3.401118e-05 -2.379361e-32)
(-2.46027e-05 -3.149182e-05 -4.02657e-31)
(-7.383372e-06 -2.044754e-05 0)
(-1.016859e-05 -2.06102e-05 -2.476471e-34)
(-3.372711e-06 -1.463466e-05 -6.847143e-34)
(-5.048702e-06 -1.524442e-05 1.802478e-31)
(-1.758776e-06 -1.096545e-05 -8.40862e-34)
(-2.730394e-06 -1.161815e-05 8.885749e-29)
(-1.044595e-06 -8.376571e-06 -2.762872e-34)
(-1.619509e-06 -9.007134e-06 -1.563687e-34)
(-1.04632e-06 -6.955476e-06 1.746698e-29)
(-6.893854e-07 -6.364137e-06 -4.336409e-31)
(-1.987857e-05 -1.741249e-05 1.548196e-31)
(-1.399453e-05 -9.941421e-06 1.552724e-25)
(-1.353685e-05 -1.80534e-05 -3.849412e-31)
(-1.264215e-05 -1.435187e-05 -3.998695e-26)
(-7.817415e-06 -1.536346e-05 1.307588e-27)
(-8.500585e-06 -1.401173e-05 -8.129788e-31)
(-4.406436e-06 -1.222685e-05 -2.277157e-28)
(-5.235281e-06 -1.188538e-05 -1.392586e-31)
(-2.591542e-06 -9.660034e-06 1.841735e-31)
(-3.235718e-06 -9.724376e-06 -7.663824e-29)
(-1.621443e-06 -7.586023e-06 -2.019097e-36)
(-2.07877e-06 -7.836961e-06 0)
(-1.398151e-06 -6.195059e-06 6.899934e-31)
(-1.077004e-06 -5.859187e-06 4.358331e-31)
(-6.750734e-06 -6.870275e-06 -5.797759e-31)
(-3.598647e-06 -3.023554e-06 4.26079e-31)
(-7.628358e-06 -1.028997e-05 -1.82724e-30)
(-6.267566e-06 -7.472431e-06 -1.270241e-26)
(-5.893826e-06 -1.048949e-05 1.484616e-28)
(-5.665897e-06 -8.854263e-06 -9.882262e-27)
(-4.062151e-06 -9.368953e-06 -3.144509e-31)
(-4.291543e-06 -8.579928e-06 -1.874513e-27)
(-2.723095e-06 -7.901255e-06 9.2396e-33)
(-3.0556e-06 -7.610709e-06 1.674127e-31)
(-1.855531e-06 -6.445935e-06 3.990064e-33)
(-2.160576e-06 -6.420089e-06 -2.054676e-35)
(-1.545078e-06 -5.22511e-06 3.512605e-31)
(-1.29294e-06 -5.09897e-06 -4.29713e-31)
(-3.112244e-06 -3.621862e-06 -1.762623e-28)
(-1.469577e-06 -1.53252e-06 -1.772034e-34)
(-4.309133e-06 -6.025512e-06 -1.973584e-28)
(-3.26274e-06 -4.132113e-06 -5.368022e-31)
(-4.05429e-06 -6.932408e-06 -1.879286e-30)
(-3.619822e-06 -5.55115e-06 -9.909098e-31)
(-3.280061e-06 -6.803034e-06 -1.444428e-28)
(-3.217046e-06 -5.926821e-06 -8.331571e-28)
(-2.491987e-06 -6.122039e-06 -4.702792e-29)
(-2.610453e-06 -5.654272e-06 -1.115012e-27)
(-1.850075e-06 -5.199167e-06 5.655599e-28)
(-2.029828e-06 -5.010937e-06 -2.862272e-31)
(-1.546141e-06 -4.198111e-06 1.931867e-29)
(-1.362818e-06 -4.219018e-06 3.472698e-31)
(-1.618725e-06 -2.040518e-06 3.00424e-33)
(-7.20051e-07 -8.396704e-07 0)
(-2.570392e-06 -3.64625e-06 1.593292e-28)
(-1.868121e-06 -2.403442e-06 -7.109408e-31)
(-2.780641e-06 -4.546736e-06 -1.69608e-28)
(-2.382203e-06 -3.500193e-06 -8.043566e-31)
(-2.545826e-06 -4.771302e-06 1.230166e-28)
(-2.396272e-06 -4.002037e-06 -7.190773e-31)
(-2.146533e-06 -4.532217e-06 -2.593547e-31)
(-2.153052e-06 -4.022757e-06 4.504317e-29)
(-1.725422e-06 -4.005074e-06 -3.428132e-28)
(-1.819035e-06 -3.725773e-06 -2.531646e-31)
(-1.469807e-06 -3.220225e-06 -7.40617e-31)
(-1.339e-06 -3.330265e-06 -5.029107e-28)
(-9.687404e-07 -1.201257e-06 -7.135721e-31)
(-4.323672e-07 -4.790862e-07 1.323888e-30)
(-1.676191e-06 -2.249065e-06 -1.512234e-30)
(-1.212857e-06 -1.431624e-06 -2.687995e-30)
(-1.995958e-06 -2.952386e-06 -1.153882e-27)
(-1.686416e-06 -2.192981e-06 -4.290497e-28)
(-2.001998e-06 -3.250875e-06 -7.839388e-31)
(-1.850994e-06 -2.630281e-06 -1.650949e-31)
(-1.825002e-06 -3.21208e-06 5.535218e-29)
(-1.794459e-06 -2.752764e-06 -2.154443e-30)
(-1.562704e-06 -2.933718e-06 3.758571e-32)
(-1.610556e-06 -2.625276e-06 7.544826e-32)
(-1.364927e-06 -2.332444e-06 4.617728e-32)
(-1.26978e-06 -2.500824e-06 -1.938332e-32)
(-6.762259e-07 -7.088193e-07 5.08322e-31)
(-3.157036e-07 -2.678751e-07 -5.20623e-29)
(-1.222383e-06 -1.37435e-06 -1.617318e-30)
(-9.06148e-07 -8.353735e-07 1.022538e-30)
(-1.541249e-06 -1.87012e-06 -8.094497e-31)
(-1.316694e-06 -1.334123e-06 1.250205e-31)
(-1.643469e-06 -2.133325e-06 -1.54832e-30)
(-1.522236e-06 -1.656497e-06 2.222425e-32)
(-1.579965e-06 -2.165928e-06 -1.498839e-30)
(-1.548729e-06 -1.782344e-06 -9.082818e-28)
(-1.412593e-06 -2.02127e-06 8.424121e-29)
(-1.447362e-06 -1.734198e-06 7.578586e-32)
(-1.265074e-06 -1.56281e-06 4.649655e-32)
(-1.187041e-06 -1.757778e-06 -3.875126e-31)
(-5.454963e-07 -3.940557e-07 1.837847e-30)
(-2.699644e-07 -1.317571e-07 1.770766e-27)
(-1.000201e-06 -7.945877e-07 2.764669e-30)
(-7.700732e-07 -4.420213e-07 -1.003618e-27)
(-1.295629e-06 -1.117034e-06 1.306163e-28)
(-1.13456e-06 -7.437304e-07 -4.504264e-28)
(-1.42769e-06 -1.306347e-06 -3.550611e-30)
(-1.34227e-06 -9.505134e-07 -2.030156e-30)
(-1.416077e-06 -1.350491e-06 1.363596e-28)
(-1.400575e-06 -1.04269e-06 1.135763e-27)
(-1.299891e-06 -1.275749e-06 3.787986e-32)
(-1.339125e-06 -1.02535e-06 3.786818e-32)
(-1.191267e-06 -9.282107e-07 0)
(-1.113583e-06 -1.119686e-06 8.646055e-31)
(-4.944735e-07 -1.794836e-07 4.060385e-31)
(-2.580024e-07 -3.798806e-08 -1.637244e-30)
(-9.041894e-07 -3.90742e-07 3.06346e-30)
(-7.236535e-07 -1.679621e-07 2.044241e-30)
(-1.178943e-06 -5.748439e-07 -9.99961e-31)
(-1.063128e-06 -3.218751e-07 3.264669e-30)
(-1.315619e-06 -6.873886e-07 -2.037833e-30)
(-1.26382e-06 -4.287917e-07 2.58309e-27)
(-1.323665e-06 -7.174516e-07 -8.274943e-34)
(-1.330519e-06 -4.769094e-07 -3.739791e-27)
(-1.23055e-06 -6.778376e-07 0)
(-1.284071e-06 -4.657102e-07 0)
(-1.150049e-06 -4.13429e-07 0)
(-1.063257e-06 -5.921778e-07 1.118174e-30)
(-4.871948e-07 -2.627343e-08 0)
(-2.646829e-07 2.955745e-08 0)
(-8.824628e-07 -9.886856e-08 2.244496e-30)
(-7.297217e-07 3.075051e-08 -2.417308e-30)
(-1.14586e-06 -1.745329e-07 8.525701e-33)
(-1.061895e-06 -1.118951e-08 -3.868636e-27)
(-1.279377e-06 -2.184251e-07 -2.271244e-30)
(-1.256933e-06 -3.614301e-08 1.987131e-31)
(-1.290892e-06 -2.251032e-07 8.493352e-34)
(-1.322417e-06 -4.057313e-08 -2.072411e-27)
(-1.203458e-06 -2.012228e-07 0)
(-1.276347e-06 -2.380962e-08 0)
(-1.142796e-06 1.422849e-09 2.692322e-30)
(-1.040585e-06 -1.632782e-07 -1.154662e-30)
(-5.072445e-07 8.674244e-08 -2.416302e-30)
(-2.836998e-07 7.986932e-08 0)
(-9.090294e-07 1.185211e-07 2.444285e-32)
(-7.702273e-07 1.796019e-07 6.096796e-27)
(-1.170927e-06 1.27726e-07 4.93305e-30)
(-1.109411e-06 2.239944e-07 2.433438e-30)
(-1.300536e-06 1.419699e-07 -1.860476e-28)
(-1.303579e-06 2.655308e-07 -1.291925e-27)
(-1.307903e-06 1.60926e-07 -2.550647e-30)
(-1.364102e-06 3.006485e-07 -5.310649e-30)
(-1.215789e-06 1.791278e-07 2.691395e-30)
(-1.311646e-06 3.278665e-07 2.827172e-30)
(-1.168967e-06 3.370147e-07 3.376847e-27)
(-1.046731e-06 1.844744e-07 7.24639e-28)
(-5.467451e-07 1.727958e-07 -2.581913e-30)
(-3.119477e-07 1.186322e-07 -2.140237e-30)
(-9.705855e-07 2.851129e-07 -8.112662e-29)
(-8.366131e-07 2.948562e-07 -2.582335e-30)
(-1.239943e-06 3.616236e-07 2.671131e-30)
(-1.19434e-06 4.076203e-07 -2.135324e-32)
(-1.367806e-06 4.24799e-07 -8.634338e-32)
(-1.392904e-06 5.03655e-07 2.700536e-30)
(-1.367923e-06 4.679495e-07 7.177499e-32)
(-1.449112e-06 5.734723e-07 9.998999e-28)
(-1.264717e-06 4.86212e-07 2.828389e-30)
(-1.385404e-06 6.13142e-07 -3.085667e-27)
(-1.226972e-06 6.132544e-07 2.95464e-27)
(-1.081401e-06 4.689585e-07 1.177302e-33)
(-6.019215e-07 2.406506e-07 -2.14065e-30)
(-3.48338e-07 1.498093e-07 8.173833e-27)
(-1.060272e-06 4.173494e-07 -9.464531e-33)
(-9.244333e-07 3.879388e-07 0)
(-1.345277e-06 5.488501e-07 -2.728316e-28)
(-1.310398e-06 5.566727e-07 -2.266695e-32)
(-1.474901e-06 6.532472e-07 -6.020745e-30)
(-1.519069e-06 6.982213e-07 3.138284e-30)
(-1.466634e-06 7.191524e-07 -2.858899e-30)
(-1.571946e-06 7.993666e-07 7.406886e-27)
(-1.347813e-06 7.406926e-07 -1.372557e-31)
(-1.494753e-06 8.527245e-07 3.094499e-30)
(-1.315587e-06 8.484894e-07 2.998557e-31)
(-1.14374e-06 7.079696e-07 4.225867e-32)
(-6.710225e-07 2.969494e-07 -2.204742e-30)
(-3.923999e-07 1.76462e-07 -2.203727e-30)
(-1.174597e-06 5.273124e-07 -1.318451e-32)
(-1.03177e-06 4.674799e-07 -2.865998e-30)
(-1.482544e-06 7.051423e-07 -3.889756e-28)
(-1.454879e-06 6.841904e-07 -1.318787e-32)
(-1.616948e-06 8.454128e-07 3.835655e-27)
(-1.679157e-06 8.659852e-07 -6.649772e-27)
(-1.600422e-06 9.341938e-07 -2.966232e-30)
(-1.730901e-06 9.970005e-07 -2.964342e-30)
(-1.462774e-06 9.610823e-07 3.532123e-30)
(-1.637258e-06 1.064197e-06 2.98319e-32)
(-1.433068e-06 1.059103e-06 -7.134197e-27)
(-1.232648e-06 9.178012e-07 7.278595e-30)
(-7.53391e-07 3.467429e-07 -2.864614e-30)
(-4.437566e-07 2.007513e-07 0)
(-1.312415e-06 6.245064e-07 -2.866576e-30)
(-1.158403e-06 5.396927e-07 1.22813e-26)
(-1.650461e-06 8.441298e-07 3.132915e-30)
(-1.626847e-06 8.001908e-07 1.326573e-33)
(-1.792396e-06 1.016257e-06 8.138668e-28)
(-1.870247e-06 1.018798e-06 3.136871e-30)
(-1.767094e-06 1.127929e-06 4.861816e-32)
(-1.921953e-06 1.178761e-06 1.866631e-32)
(-1.607745e-06 1.162727e-06 7.331888e-28)
(-1.810845e-06 1.262135e-06 2.981895e-32)
(-1.578044e-06 1.259011e-06 3.846105e-30)
(-1.347108e-06 1.112637e-06 3.910303e-30)
(-8.490725e-07 3.933988e-07 -5.71445e-30)
(-5.029638e-07 2.24136e-07 -2.152308e-30)
(-1.473115e-06 7.155395e-07 -5.717047e-30)
(-1.304212e-06 6.092096e-07 1.379538e-26)
(-1.846727e-06 9.748289e-07 -2.081408e-28)
(-1.824993e-06 9.123698e-07 1.488001e-32)
(-1.99954e-06 1.179336e-06 6.385251e-34)
(-2.092259e-06 1.168004e-06 8.654891e-33)
(-1.964916e-06 1.314322e-06 0)
(-2.144233e-06 1.357449e-06 0)
(-1.781369e-06 1.358932e-06 0)
(-2.014111e-06 1.458575e-06 -3.836436e-30)
(-1.749297e-06 1.459684e-06 4.18061e-33)
(-1.48614e-06 1.304657e-06 -3.821794e-32)
(-9.584327e-07 4.395447e-07 -1.106482e-28)
(-5.703485e-07 2.477553e-07 1.462016e-26)
(-1.656548e-06 8.06141e-07 -1.709466e-28)
(-1.469309e-06 6.796632e-07 -5.423782e-30)
(-2.070839e-06 1.105522e-06 -2.368418e-28)
(-2.049212e-06 1.026495e-06 5.305536e-32)
(-2.236702e-06 1.343548e-06 8.154442e-33)
(-2.343482e-06 1.320461e-06 4.138661e-32)
(-2.192426e-06 1.503382e-06 -3.881034e-30)
(-2.396268e-06 1.541006e-06 0)
(-1.982288e-06 1.559875e-06 -8.243627e-28)
(-2.245614e-06 1.662179e-06 1.210758e-26)
(-1.944895e-06 1.670041e-06 3.493922e-32)
(-1.648303e-06 1.503821e-06 -8.269272e-28)
(-1.081648e-06 4.872703e-07 -1.632629e-28)
(-6.462028e-07 2.724236e-07 -3.815853e-30)
(-1.862529e-06 9.001603e-07 -2.587785e-28)
(-1.653638e-06 7.533662e-07 1.945213e-26)
(-2.322194e-06 1.241407e-06 -5.538673e-28)
(-2.298782e-06 1.145991e-06 -2.598994e-30)
(-2.502862e-06 1.514855e-06 3.389538e-32)
(-2.622422e-06 1.480094e-06 3.335303e-32)
(-2.448391e-06 1.701842e-06 -3.962629e-30)
(-2.675743e-06 1.733246e-06 -5.537677e-31)
(-2.208411e-06 1.772982e-06 -3.882594e-30)
(-2.502946e-06 1.87834e-06 -4.660624e-30)
(-2.161012e-06 1.896056e-06 -9.721359e-32)
(-1.831042e-06 1.71777e-06 -9.373778e-28)
(-1.218701e-06 5.377515e-07 -6.609614e-30)
(-7.307931e-07 2.985793e-07 1.816676e-26)
(-2.090494e-06 9.994607e-07 -7.450399e-30)
(-1.856883e-06 8.312541e-07 2.512176e-26)
(-2.599452e-06 1.384733e-06 -2.640406e-30)
(-2.572639e-06 1.272002e-06 2.287785e-26)
(-2.79558e-06 1.695804e-06 -5.487477e-31)
(-2.927084e-06 1.648556e-06 -2.799971e-30)
(-2.731666e-06 1.911801e-06 8.205386e-27)
(-2.981843e-06 1.936919e-06 -6.434707e-31)
(-2.455156e-06 2.003058e-06 2.301396e-27)
(-2.783422e-06 2.110184e-06 -4.658512e-30)
(-2.391686e-06 2.139018e-06 4.425724e-30)
(-2.029413e-06 1.950806e-06 -1.279351e-31)
(-1.369559e-06 5.911183e-07 2.588802e-28)
(-8.239874e-07 3.259928e-07 -1.489357e-30)
(-2.339828e-06 1.104054e-06 2.877737e-28)
(-2.07898e-06 9.125294e-07 2.779128e-26)
(-2.900929e-06 1.536024e-06 -7.50258e-30)
(-2.869341e-06 1.403181e-06 2.616893e-26)
(-3.112704e-06 1.887696e-06 8.848095e-28)
(-3.253813e-06 1.823957e-06 2.405635e-26)
(-3.035369e-06 2.133154e-06 -3.950735e-30)
(-3.303776e-06 2.147965e-06 -9.196997e-32)
(-2.715245e-06 2.247177e-06 7.503574e-31)
(-3.072702e-06 2.35061e-06 1.803056e-26)
(-2.627105e-06 2.394383e-06 -1.340168e-26)
(-2.235924e-06 2.201344e-06 -1.362223e-27)
(-1.534096e-06 6.462092e-07 -1.605934e-30)
(-9.260349e-07 3.536485e-07 5.542493e-31)
(-2.609395e-06 1.211814e-06 2.610405e-28)
(-2.319194e-06 9.945941e-07 -1.606169e-30)
(-3.223156e-06 1.691507e-06 -6.693452e-30)
(-3.186263e-06 1.53555e-06 -1.954141e-30)
(-3.445669e-06 2.084238e-06 -4.747622e-30)
(-3.597446e-06 2.000586e-06 2.759501e-26)
(-3.346511e-06 2.362346e-06 -3.709277e-30)
(-3.634947e-06 2.360981e-06 2.414051e-30)
(-2.978201e-06 2.499511e-06 -3.729563e-30)
(-3.361563e-06 2.591812e-06 -3.78788e-30)
(-2.853563e-06 2.651524e-06 1.611104e-26)
(-2.438592e-06 2.462519e-06 -5.446654e-30)
(-1.71194e-06 7.006165e-07 5.543495e-31)
(-1.037122e-06 3.800106e-07 -3.063503e-26)
(-2.897096e-06 1.318442e-06 0)
(-2.57625e-06 1.073211e-06 0)
(-3.561635e-06 1.845107e-06 -1.339768e-31)
(-3.519734e-06 1.662214e-06 0)
(-3.787792e-06 2.277567e-06 1.306502e-27)
(-3.951107e-06 2.168621e-06 -3.194566e-26)
(-3.656744e-06 2.586814e-06 2.463648e-30)
(-3.964755e-06 2.561718e-06 -2.796267e-26)
(-3.229895e-06 2.746144e-06 -4.393973e-30)
(-3.63664e-06 2.816319e-06 -3.085341e-30)
(-3.053718e-06 2.892061e-06 -4.365489e-30)
(-2.619041e-06 2.718701e-06 -9.124867e-30)
(-1.902384e-06 7.509255e-07 -2.410158e-31)
(-1.157313e-06 4.030273e-07 -3.51432e-26)
(-3.200108e-06 1.417114e-06 0)
(-2.848666e-06 1.142219e-06 -5.067385e-32)
(-3.910481e-06 1.986309e-06 1.442017e-30)
(-3.865747e-06 1.772795e-06 -3.554239e-31)
(-4.129376e-06 2.453213e-06 -1.532519e-27)
(-4.307005e-06 2.313569e-06 1.223979e-30)
(-3.951737e-06 2.788227e-06 1.350629e-30)
(-4.280981e-06 2.731981e-06 -3.374782e-26)
(-3.459949e-06 2.965398e-06 -3.104689e-30)
(-3.883728e-06 3.002525e-06 2.59656e-26)
(-3.203271e-06 3.089698e-06 0)
(-2.750451e-06 2.946073e-06 5.26639e-30)
(-2.10471e-06 7.923197e-07 -1.012912e-30)
(-1.286821e-06 4.198225e-07 -9.61695e-31)
(-3.515741e-06 1.498083e-06 4.011058e-28)
(-3.135712e-06 1.192889e-06 2.016764e-30)
(-4.263794e-06 2.100756e-06 -5.735657e-31)
(-4.221056e-06 1.852895e-06 -4.639297e-26)
(-4.460107e-06 2.593095e-06 1.791101e-27)
(-4.657856e-06 2.415906e-06 -2.181063e-31)
(-4.216289e-06 2.944538e-06 -2.780851e-30)
(-4.5701e-06 2.84726e-06 3.990263e-26)
(-3.637209e-06 3.126674e-06 -2.576733e-30)
(-4.073049e-06 3.119452e-06 -4.032606e-30)
(-3.262444e-06 3.204138e-06 -8.519371e-31)
(-2.797318e-06 3.10439e-06 5.910499e-30)
(-2.319128e-06 8.180105e-07 2.066091e-30)
(-1.426508e-06 4.2625e-07 3.246007e-30)
(-3.842709e-06 1.547967e-06 6.606139e-31)
(-3.438421e-06 1.21335e-06 5.649341e-26)
(-4.61691e-06 2.168881e-06 -1.408396e-30)
(-4.584579e-06 1.883599e-06 -4.190727e-30)
(-4.769732e-06 2.671193e-06 -1.202821e-30)
(-4.998722e-06 2.450204e-06 0)
(-4.429634e-06 3.023001e-06 4.611479e-27)
(-4.821204e-06 2.876124e-06 -4.00686e-31)
(-3.72029e-06 3.197116e-06 6.679654e-27)
(-4.18517e-06 3.133091e-06 -1.517281e-30)
(-3.20292e-06 3.195868e-06 -1.90476e-30)
(-2.725659e-06 3.158811e-06 4.821554e-32)
(-2.547304e-06 8.187362e-07 6.816118e-30)
(-1.578122e-06 4.167197e-07 5.133075e-26)
(-4.182265e-06 1.549383e-06 7.911095e-31)
(-3.76041e-06 1.18802e-06 8.947667e-30)
(-4.96848e-06 2.165927e-06 -2.783855e-30)
(-4.959616e-06 1.840552e-06 -6.011647e-26)
(-5.052396e-06 2.656485e-06 8.015943e-31)
(-5.3303e-06 2.384292e-06 0)
(-4.579997e-06 2.987497e-06 -5.273675e-27)
(-5.029776e-06 2.780063e-06 8.017089e-31)
(-3.695539e-06 3.132705e-06 6.96669e-27)
(-4.209411e-06 2.99751e-06 1.030756e-31)
(-3.00244e-06 3.011706e-06 1.11554e-29)
(-2.494705e-06 3.055965e-06 3.712174e-30)
(-2.792583e-06 7.824206e-07 1.012388e-29)
(-1.745109e-06 3.842984e-07 1.131366e-29)
(-4.540202e-06 1.479916e-06 9.1723e-31)
(-4.110705e-06 1.09707e-06 6.807431e-26)
(-5.323856e-06 2.060132e-06 -4.463524e-30)
(-5.357705e-06 1.692483e-06 -4.460028e-30)
(-5.310247e-06 2.509506e-06 0)
(-5.664012e-06 2.177657e-06 -4.112648e-30)
(-4.662841e-06 2.791782e-06 1.029668e-31)
(-5.204385e-06 2.511896e-06 1.162633e-30)
(-3.544044e-06 2.877957e-06 1.213246e-29)
(-4.14823e-06 2.660867e-06 4.857367e-26)
(-2.650868e-06 2.586785e-06 -2.364168e-26)
(-2.081085e-06 2.725403e-06 -5.807081e-26)
(-3.063463e-06 6.94331e-07 2.60693e-27)
(-1.931085e-06 3.202123e-07 6.223205e-26)
(-4.931248e-06 1.310918e-06 7.649549e-30)
(-4.503539e-06 9.15044e-07 7.66859e-30)
(-5.700721e-06 1.81143e-06 -4.109284e-30)
(-5.804097e-06 1.400002e-06 9.255062e-30)
(-5.561144e-06 2.182037e-06 -6.071462e-27)
(-6.029192e-06 1.779397e-06 -7.767721e-26)
(-4.693364e-06 2.383554e-06 2.650685e-30)
(-5.375491e-06 2.013086e-06 6.423655e-30)
(-3.273824e-06 2.376e-06 7.975907e-27)
(-4.030906e-06 2.06478e-06 6.348691e-26)
(-2.176966e-06 1.889001e-06 5.808277e-26)
(-1.469099e-06 2.101964e-06 3.330673e-26)
(-3.364925e-06 5.339297e-07 8.693058e-30)
(-2.145612e-06 2.14259e-07 8.613914e-30)
(-5.382319e-06 1.006036e-06 9.278129e-30)
(-4.973134e-06 6.120748e-07 0)
(-6.135948e-06 1.369662e-06 -2.638834e-27)
(-6.346623e-06 9.148852e-07 9.158627e-26)
(-5.847162e-06 1.612754e-06 -1.429146e-30)
(-6.484791e-06 1.125913e-06 -6.680225e-30)
(-4.716933e-06 1.697379e-06 1.127474e-29)
(-5.605186e-06 1.208019e-06 8.171267e-26)
(-2.942833e-06 1.5821e-06 6.472558e-30)
(-3.918132e-06 1.126121e-06 6.985496e-26)
(-1.631139e-06 8.358229e-07 -1.555929e-30)
(-7.158666e-07 1.206477e-06 -4.862045e-30)
(-3.732145e-06 2.844347e-07 0)
(-2.415528e-06 5.66691e-08 1.396956e-29)
(-5.945299e-06 5.236859e-07 2.342647e-29)
(-5.57019e-06 1.577938e-07 -1.628542e-29)
(-6.699213e-06 6.733306e-07 2.333865e-29)
(-7.06913e-06 1.827675e-07 1.187733e-25)
(-6.246698e-06 7.238894e-07 1.509829e-29)
(-7.137261e-06 1.432119e-07 0)
(-4.810884e-06 6.403011e-07 2.006093e-29)
(-6.008221e-06 4.674343e-09 7.761319e-26)
(-2.614473e-06 3.844123e-07 2.964302e-30)
(-3.916553e-06 -2.649766e-07 4.946654e-30)
(-1.101817e-06 -7.072392e-07 -6.339976e-26)
(1.148407e-07 -9.642664e-08 -2.02575e-30)
(-4.228376e-06 -7.796469e-08 8.816508e-27)
(-2.778271e-06 -1.652409e-07 9.143261e-26)
(-6.699051e-06 -1.839891e-07 -3.117362e-29)
(-6.390334e-06 -4.875534e-07 -9.458617e-26)
(-7.515009e-06 -3.479599e-07 -1.477741e-29)
(-8.120987e-06 -8.566488e-07 -1.826509e-25)
(-6.902909e-06 -5.732556e-07 1.027761e-29)
(-8.180157e-06 -1.243315e-06 -3.42993e-29)
(-5.118709e-06 -8.964045e-07 1.027518e-29)
(-6.789974e-06 -1.692092e-06 2.145212e-29)
(-2.411097e-06 -1.350267e-06 1.128082e-30)
(-4.224513e-06 -2.228467e-06 -2.635977e-30)
(-7.424853e-07 -2.89087e-06 4.083348e-30)
(9.535272e-07 -1.991159e-06 -3.313621e-26)
(-4.925382e-06 -5.795053e-07 -3.407132e-30)
(-3.283477e-06 -4.631565e-07 1.706508e-29)
(-7.799345e-06 -1.154287e-06 -7.702648e-29)
(-7.586756e-06 -1.346212e-06 -2.080119e-29)
(-8.796858e-06 -1.75477e-06 -9.154006e-29)
(-9.744132e-06 -2.250065e-06 -9.875876e-26)
(-8.070473e-06 -2.367919e-06 1.285668e-26)
(-9.9426e-06 -3.113998e-06 -2.561305e-25)
(-5.900315e-06 -3.019938e-06 8.543075e-30)
(-8.314158e-06 -3.962608e-06 1.262489e-25)
(-2.562104e-06 -3.762529e-06 1.355739e-26)
(-5.205254e-06 -4.866074e-06 -8.788296e-30)
(-8.646688e-07 -5.858201e-06 -1.093648e-29)
(1.648892e-06 -4.645786e-06 -3.924891e-26)
(-5.943431e-06 -1.236974e-06 -5.844661e-27)
(-4.011186e-06 -8.463419e-07 7.857099e-33)
(-9.513508e-06 -2.428719e-06 -2.508653e-29)
(-9.400976e-06 -2.448738e-06 3.095796e-32)
(-1.087906e-05 -3.583041e-06 4.563575e-27)
(-1.228594e-05 -4.013523e-06 -5.173191e-29)
(-1.016997e-05 -4.71122e-06 -2.099912e-26)
(-1.286428e-05 -5.467009e-06 -4.467998e-29)
(-7.620737e-06 -5.804459e-06 1.642765e-29)
(-1.118795e-05 -6.834098e-06 5.229653e-29)
(-3.514286e-06 -6.954011e-06 3.040875e-26)
(-7.503216e-06 -8.218524e-06 -1.61946e-29)
(-2.062982e-06 -9.677858e-06 -1.387023e-29)
(1.845566e-06 -8.223131e-06 4.573855e-26)
(-7.469088e-06 -2.066486e-06 6.609414e-27)
(-5.073572e-06 -1.323271e-06 6.612336e-32)
(-1.217151e-05 -4.027958e-06 -2.650855e-29)
(-1.215337e-05 -3.817409e-06 2.572097e-31)
(-1.427226e-05 -5.875217e-06 -1.276034e-27)
(-1.62989e-05 -6.192218e-06 -1.183383e-25)
(-1.391196e-05 -7.612527e-06 -5.933368e-26)
(-1.775925e-05 -8.376121e-06 -9.403589e-26)
(-1.10753e-05 -9.273994e-06 -3.34393e-26)
(-1.638821e-05 -1.03424e-05 -3.226348e-29)
(-6.055759e-06 -1.093761e-05 -1.003082e-29)
(-1.219958e-05 -1.222894e-05 -2.285028e-25)
(-5.370898e-06 -1.428515e-05 0)
(8.562193e-07 -1.277459e-05 2.038473e-30)
(-9.756233e-06 -3.083178e-06 0)
(-6.613495e-06 -1.906785e-06 1.637201e-31)
(-1.627765e-05 -5.976014e-06 -3.420802e-29)
(-1.626125e-05 -5.483389e-06 -6.292723e-31)
(-1.974363e-05 -8.655983e-06 -7.104181e-29)
(-2.245913e-05 -8.815771e-06 -3.636323e-29)
(-2.022382e-05 -1.106264e-05 1.8647e-27)
(-2.543997e-05 -1.178664e-05 -3.672588e-29)
(-1.756047e-05 -1.332622e-05 1.087944e-25)
(-2.51572e-05 -1.443824e-05 -1.000463e-25)
(-1.149745e-05 -1.562098e-05 -5.464978e-29)
(-2.092698e-05 -1.685413e-05 -4.543889e-29)
(-1.246624e-05 -1.944225e-05 2.219808e-29)
(-2.52696e-06 -1.816669e-05 8.651507e-30)
(-1.311421e-05 -4.316801e-06 1.756392e-26)
(-8.79581e-06 -2.623334e-06 4.105185e-29)
(-2.243926e-05 -8.318398e-06 1.488453e-27)
(-2.220738e-05 -7.518125e-06 -1.332155e-30)
(-2.814297e-05 -1.193603e-05 -2.147239e-30)
(-3.156106e-05 -1.19825e-05 4.566557e-29)
(-3.029296e-05 -1.509741e-05 -6.767248e-29)
(-3.706147e-05 -1.583328e-05 0)
(-2.849741e-05 -1.786318e-05 -6.066499e-29)
(-3.860197e-05 -1.907315e-05 -1.583895e-25)
(-2.169748e-05 -2.070862e-05 -4.137615e-26)
(-3.517226e-05 -2.182689e-05 4.625392e-29)
(-2.600193e-05 -2.467642e-05 1.465243e-28)
(-1.038655e-05 -2.398158e-05 -7.145869e-26)
(-1.788153e-05 -5.835408e-06 -2.018014e-26)
(-1.178198e-05 -3.524952e-06 7.621226e-26)
(-3.132265e-05 -1.117781e-05 4.704135e-29)
(-3.047931e-05 -1.007189e-05 5.656588e-29)
(-4.047222e-05 -1.5874e-05 4.782545e-29)
(-4.4399e-05 -1.592462e-05 1.139763e-25)
(-4.535804e-05 -1.979468e-05 -4.931054e-29)
(-5.374596e-05 -2.080219e-05 7.229687e-30)
(-4.542812e-05 -2.297147e-05 -1.183443e-26)
(-5.837259e-05 -2.464444e-05 -3.034573e-29)
(-3.962481e-05 -2.587712e-05 -1.593516e-25)
(-5.760869e-05 -2.759063e-05 -1.780868e-25)
(-4.940494e-05 -2.996978e-05 1.795389e-28)
(-2.652511e-05 -2.935903e-05 -2.081897e-25)
(-2.436079e-05 -7.770521e-06 -2.24502e-26)
(-1.567901e-05 -4.690252e-06 4.704128e-29)
(-4.354948e-05 -1.48162e-05 1.129283e-28)
(-4.144996e-05 -1.339419e-05 5.928814e-26)
(-5.765999e-05 -2.08471e-05 6.292337e-29)
(-6.16513e-05 -2.108093e-05 -8.456975e-30)
(-6.673299e-05 -2.563969e-05 7.381564e-27)
(-7.638921e-05 -2.731502e-05 3.325487e-30)
(-7.032011e-05 -2.916148e-05 2.055834e-26)
(-8.536354e-05 -3.192967e-05 8.658044e-29)
(-6.722897e-05 -3.155763e-05 -4.428784e-27)
(-8.809479e-05 -3.482918e-05 6.439177e-30)
(-8.35758e-05 -3.574758e-05 5.424999e-29)
(-5.423031e-05 -3.349866e-05 -1.309401e-25)
(-3.267005e-05 -1.029908e-05 -6.419812e-29)
(-2.053549e-05 -6.235237e-06 -5.949581e-29)
(-5.960723e-05 -1.967894e-05 9.343601e-27)
(-5.54162e-05 -1.78727e-05 1.547641e-25)
(-8.038e-05 -2.754954e-05 -8.320293e-27)
(-8.368768e-05 -2.809432e-05 -9.434081e-27)
(-9.499942e-05 -3.359806e-05 6.363218e-29)
(-0.0001053298 -3.635992e-05 -1.451704e-28)
(-0.0001031051 -3.758291e-05 3.694499e-26)
(-0.0001195199 -4.227274e-05 1.748791e-25)
(-0.0001047474 -3.90067e-05 1.442617e-29)
(-0.0001281741 -4.535931e-05 -3.137977e-29)
(-0.0001303475 -4.467811e-05 6.505462e-27)
(-9.543119e-05 -3.911593e-05 5.45119e-27)
(-4.298258e-05 -1.373119e-05 -2.022517e-28)
(-2.645495e-05 -8.334145e-06 1.014265e-25)
(-7.950763e-05 -2.629605e-05 8.531471e-26)
(-7.241622e-05 -2.398688e-05 -1.417963e-28)
(-0.0001088305 -3.697557e-05 -2.054772e-28)
(-0.0001105859 -3.784734e-05 -6.369334e-29)
(-0.0001298595 -4.504113e-05 -6.153433e-29)
(-0.000140274 -4.900543e-05 -1.511457e-25)
(-0.0001445218 -5.00372e-05 8.455915e-26)
(-0.0001610077 -5.684461e-05 -7.610834e-29)
(-0.0001531662 -5.091676e-05 6.282191e-27)
(-0.000180069 -5.982323e-05 -1.456944e-25)
(-0.0001864051 -5.69458e-05 7.811325e-21)
(-0.0001515625 -6.072343e-05 2.64687e-20)
(-5.556336e-05 -1.85002e-05 2.857095e-26)
(-3.353367e-05 -1.117959e-05 6.001459e-30)
(-0.0001030229 -3.537584e-05 8.025314e-31)
(-9.181858e-05 -3.212825e-05 -7.30353e-31)
(-0.0001422314 -4.996542e-05 -3.262862e-30)
(-0.0001416233 -5.09916e-05 -3.206439e-30)
(-0.0001718225 -6.096864e-05 -1.609895e-28)
(-0.0001821674 -6.629481e-05 -1.078038e-25)
(-0.0001965827 -6.666031e-05 -8.894589e-27)
(-0.0002127525 -7.614673e-05 -7.736727e-25)
(-0.0002144619 -9.562637e-05 2.609891e-20)
(-0.0002377118 -7.992111e-05 -8.476483e-21)
(-0.0002424466 -8.736054e-05 1.292205e-19)
(-0.0002226486 -0.0002428914 1.116173e-18)
(-6.967849e-05 -2.478965e-05 6.940223e-29)
(-4.113958e-05 -1.480491e-05 -1.768376e-25)
(-0.0001298256 -4.751741e-05 -3.222829e-26)
(-0.000111713 -4.249183e-05 -1.517827e-30)
(-0.0001808493 -6.705783e-05 2.008199e-28)
(-0.0001771388 -6.782537e-05 -1.596315e-29)
(-0.0002236107 -8.169892e-05 7.182744e-25)
(-0.0002329182 -8.948019e-05 1.456531e-26)
(-0.000256834 -0.0001206039 1.697917e-19)
(-0.0002707607 -0.0001048076 6.790296e-20)
(-0.0002820205 -0.0003173737 -1.583359e-18)
(-0.0002950606 -0.0001220898 -5.509244e-20)
(-0.0003185294 -0.0001759013 -1.29256e-18)
(-0.0003233656 -0.0007726373 2.941795e-18)
(-8.307624e-05 -3.249274e-05 7.617522e-29)
(-4.761005e-05 -1.9083e-05 7.61856e-29)
(-0.0001588766 -6.275566e-05 -1.276576e-29)
(-0.0001296552 -5.520505e-05 -1.299523e-29)
(-0.0002281619 -8.98208e-05 -4.193285e-26)
(-0.0002184352 -8.981341e-05 3.69399e-27)
(-0.0002792481 -0.0001354658 6.099871e-20)
(-0.0002814569 -0.0001188166 -3.155093e-20)
(-0.0003317506 -0.0003323523 3.304873e-19)
(-0.0003217327 -0.0001469913 2.829192e-19)
(-0.0003926228 -0.000835416 -8.547382e-19)
(-0.0004126072 -0.0002076914 -4.571195e-18)
(-0.0009051506 -0.001238445 -5.672922e-18)
(-0.0008548559 -0.002446409 -9.745915e-19)
(-9.390671e-05 -4.171052e-05 -1.296949e-29)
(-5.663007e-05 -2.419804e-05 0)
(-0.0001893448 -8.236202e-05 -1.823159e-25)
(-0.0001471773 -7.111232e-05 -9.139853e-27)
(-0.0002729493 -0.0001298027 1.366991e-20)
(-0.000252179 -0.0001194268 2.187997e-20)
(-0.0003359071 -0.0003211253 -3.209019e-19)
(-0.0003238955 -0.0001607816 1.599794e-19)
(-0.0004228447 -0.0007940849 -2.110097e-18)
(-0.0003889018 -0.0002277735 -2.103982e-19)
(-0.001083016 -0.00250435 7.19742e-18)
(-0.0009648583 -0.001255414 -2.460991e-18)
(-0.002098505 -0.003264441 7.738623e-18)
(-0.001869831 -0.005007889 -4.736342e-18)
(-0.0001092531 -5.331285e-05 -9.074855e-27)
(-8.465467e-05 -3.022934e-05 8.995131e-29)
(-0.0002106644 -0.0001085588 -7.543236e-23)
(-0.0001687581 -8.776542e-05 -1.234285e-23)
(-0.0003144709 -0.0002516898 -8.159228e-19)
(-0.0002737224 -0.0001513503 -1.265832e-20)
(-0.0004266687 -0.0007256684 -2.697464e-18)
(-0.0003884148 -0.0002414463 -8.974637e-19)
(-0.001031771 -0.002405553 9.743672e-19)
(-0.0008077195 -0.001015566 -2.858092e-19)
(-0.002083487 -0.005269886 -8.827588e-18)
(-0.002026955 -0.003420301 -1.148435e-18)
(-0.002331605 -0.003767238 -1.809877e-18)
(-0.002730185 -0.006524809 5.096626e-17)
(-0.0001435782 -6.440093e-05 -4.196751e-26)
(-0.0001046145 -3.347013e-05 -6.270552e-25)
(-0.00023631 -0.0001671281 3.79133e-20)
(-0.0001813719 -9.923541e-05 -3.67522e-21)
(-0.0003600151 -0.0005379843 -2.295637e-19)
(-0.0002990374 -0.0002200627 7.721174e-20)
(-0.0008687666 -0.00194614 -4.951881e-18)
(-0.0005818196 -0.0007472407 -6.143299e-19)
(-0.002030736 -0.005089625 -2.969589e-18)
(-0.00186737 -0.003162099 -9.484492e-18)
(-0.002647407 -0.007112579 -1.405691e-17)
(-0.002561731 -0.004587724 -3.240027e-19)
(-0.002210118 -0.002706338 1.157259e-17)
(-0.00245303 -0.006765532 -3.385341e-17)
(-0.0001445713 -7.146504e-05 -7.521239e-22)
(-0.000100991 -2.456212e-05 2.480705e-21)
(-0.0002645148 -0.0003543981 6.103691e-20)
(-0.0001830236 -0.0001291157 -6.910435e-20)
(-0.0005896101 -0.001390825 -9.69024e-20)
(-0.0003724198 -0.0005024895 1.605627e-19)
(-0.001652354 -0.004316777 2.286443e-18)
(-0.001116888 -0.002210364 9.345694e-19)
(-0.002705964 -0.007179264 8.625457e-18)
(-0.002388015 -0.004957087 -4.333228e-18)
(-0.002742735 -0.007419422 1.301356e-17)
(-0.002257457 -0.003953379 4.878552e-18)
(-0.002436433 -0.001600198 1.618703e-17)
(-0.002407734 -0.006757472 1.241633e-16)
(-0.000147519 -0.0001241579 2.450407e-20)
(-5.049893e-05 -2.956611e-05 5.180829e-20)
(-0.000336313 -0.0008212605 4.364747e-19)
(-0.0001891964 -0.0002208183 -7.590828e-19)
(-0.001032521 -0.003062549 -1.714729e-18)
(-0.0005446442 -0.001182764 -5.465781e-19)
(-0.002118064 -0.006424464 3.820473e-18)
(-0.001671608 -0.004104265 2.148947e-18)
(-0.002502612 -0.007919028 2.040031e-17)
(-0.002257855 -0.005100868 1.603961e-18)
(-0.00227494 -0.007451871 3.797156e-17)
(-0.001849749 -0.002932678 4.501322e-18)
(-0.001661521 -0.0007342813 2.388715e-17)
(-0.002565483 -0.007148455 -7.806957e-17)
(-0.0001111218 -0.0002889148 9.056149e-20)
(-2.209466e-05 -3.40391e-05 6.522034e-21)
(-0.0004731464 -0.001590835 2.20248e-19)
(-0.0002048781 -0.0004318249 7.355986e-19)