/*--------------------------------*- C++ -*----------------------------------*\
| =========                 |                                                 |
| \\      /  F ield         | OpenFOAM: The Open Source CFD Toolbox           |
|  \\    /   O peration     | Version:  2206                                  |
|   \\  /    A nd           | Website:  www.openfoam.com                      |
|    \\/     M anipulation  |                                                 |
\*---------------------------------------------------------------------------*/
FoamFile
{
    version     2.0;
    format      ascii;
    arch        "LSB;label=32;scalar=64";
    class       volVectorField;
    location    "1.4";
    object      ddtCorrDdt0(U.a);
}
// * * * * * * * * * * * * * * * * * * * * * * * * * * * * * * * * * * * * * //

dimensions      [0 1 -2 0 0 0 0];

internalField   nonuniform List<vector> 
13078
(
(1.054105e-05 -0.0001787571 3.393756e-27)
(1.067442e-06 -7.029193e-05 1.900935e-32)
(-3.786413e-08 -3.134666e-05 -4.448735e-29)
(-1.315739e-07 -1.747809e-05 0)
(-1.589232e-07 -1.290395e-05 -3.067798e-31)
(-1.726835e-07 -9.766602e-06 -5.128983e-31)
(-1.790785e-07 -7.433386e-06 -6.982599e-31)
(-7.535511e-05 -8.002533e-05 0)
(-3.216065e-05 -4.381209e-05 -4.729419e-32)
(-1.028418e-05 -2.408793e-05 0)
(-4.503926e-06 -1.683062e-05 0)
(-2.242149e-06 -1.243927e-05 -1.369024e-33)
(-1.275426e-06 -9.491272e-06 -3.127354e-34)
(-8.137749e-07 -7.261824e-06 -2.398409e-34)
(-2.279512e-05 -1.583094e-05 1.071293e-30)
(-1.695882e-05 -1.901114e-05 -7.626592e-31)
(-1.005396e-05 -1.707985e-05 -4.990425e-34)
(-5.594769e-06 -1.365797e-05 3.605229e-31)
(-3.219201e-06 -1.079701e-05 3.683601e-31)
(-1.963925e-06 -8.52299e-06 0)
(-1.278976e-06 -6.649123e-06 -4.038103e-36)
(-5.180775e-06 -4.052413e-06 8.525815e-31)
(-8.322461e-06 -9.693303e-06 -2.013745e-30)
(-6.92351e-06 -1.089683e-05 -1.637848e-30)
(-4.870508e-06 -1.008513e-05 -6.468386e-31)
(-3.252475e-06 -8.651706e-06 1.847992e-32)
(-2.193757e-06 -7.150918e-06 0)
(-1.517321e-06 -5.740996e-06 7.979949e-33)
(-2.013901e-06 -1.994756e-06 -3.544403e-34)
(-4.211849e-06 -5.251928e-06 -1.07972e-30)
(-4.407953e-06 -6.811912e-06 -1.969481e-30)
(-3.703719e-06 -7.052155e-06 -1.789879e-30)
(-2.855707e-06 -6.553726e-06 3.186326e-31)
(-2.127327e-06 -5.689246e-06 -4.109388e-35)
(-1.572835e-06 -4.709211e-06 6.945507e-31)
(-9.249332e-07 -1.070356e-06 0)
(-2.313326e-06 -3.012492e-06 6.011984e-33)
(-2.831489e-06 -4.29044e-06 -1.238793e-32)
(-2.730198e-06 -4.801261e-06 -1.10521e-30)
(-2.361694e-06 -4.741574e-06 5.719717e-32)
(-1.930808e-06 -4.322385e-06 -5.767352e-31)
(-1.519508e-06 -3.687009e-06 -1.470419e-30)
(-5.15073e-07 -6.090222e-07 0)
(-1.422828e-06 -1.794463e-06 -1.427804e-30)
(-1.932157e-06 -2.708738e-06 -1.597532e-30)
(-2.060154e-06 -3.197751e-06 -3.305006e-31)
(-1.944355e-06 -3.303735e-06 -1.233378e-30)
(-1.705709e-06 -3.120558e-06 7.507246e-32)
(-1.419321e-06 -2.746524e-06 0)
(-3.496398e-07 -3.491742e-07 2.647517e-30)
(-1.002992e-06 -1.06897e-06 -1.632054e-30)
(-1.442245e-06 -1.680599e-06 -1.60255e-30)
(-1.642296e-06 -2.063881e-06 0)
(-1.644627e-06 -2.201956e-06 -3.075234e-30)
(-1.515373e-06 -2.130123e-06 7.582396e-32)
(-1.309782e-06 -1.912514e-06 9.300698e-32)
(-2.817774e-07 -1.865936e-07 2.336751e-34)
(-8.093603e-07 -6.018365e-07 3.67647e-30)
(-1.191353e-06 -9.878933e-07 1.851383e-30)
(-1.402201e-06 -1.249222e-06 4.444253e-32)
(-1.452812e-06 -1.362833e-06 -7.093762e-30)
(-1.379383e-06 -1.338379e-06 7.574778e-32)
(-1.220374e-06 -1.21321e-06 0)
(-2.582375e-07 -7.693469e-08 -3.274878e-30)
(-7.308424e-07 -2.822436e-07 4.089025e-30)
(-1.077823e-06 -4.99631e-07 2.036201e-30)
(-1.282341e-06 -6.518417e-07 -4.104498e-30)
(-1.348406e-06 -7.226325e-07 -1.655955e-33)
(-1.298954e-06 -7.124176e-07 0)
(-1.162124e-06 -6.433005e-07 0)
(-2.578504e-07 9.458183e-10 0)
(-7.166718e-07 -5.371926e-08 0)
(-1.048535e-06 -1.441724e-07 4.492796e-30)
(-1.245427e-06 -2.057798e-07 -4.578959e-30)
(-1.312816e-06 -2.312608e-07 1.699682e-33)
(-1.268994e-06 -2.190723e-07 0)
(-1.137901e-06 -1.836318e-07 0)
(-2.71718e-07 5.815432e-08 0)
(-7.429108e-07 1.151942e-07 -4.834037e-30)
(-1.075436e-06 1.217507e-07 4.891343e-30)
(-1.268666e-06 1.334587e-07 4.975738e-30)
(-1.331916e-06 1.500642e-07 -5.104386e-30)
(-1.28392e-06 1.713822e-07 0)
(-1.147636e-06 1.864166e-07 5.383728e-30)
(-2.958196e-07 1.015726e-07 0)
(-7.978242e-07 2.439797e-07 -5.165406e-30)
(-1.143654e-06 3.261973e-07 -2.376112e-32)
(-1.338549e-06 3.975798e-07 5.430854e-30)
(-1.396605e-06 4.511758e-07 -5.516852e-30)
(-1.339278e-06 4.843024e-07 5.65341e-30)
(-1.19013e-06 4.875649e-07 2.354109e-33)
(-3.283645e-07 1.356747e-07 -4.279965e-30)
(-8.75649e-07 3.457072e-07 0)
(-1.245228e-06 4.890092e-07 -1.894609e-32)
(-1.447725e-06 6.096978e-07 -2.960735e-32)
(-1.501682e-06 6.958028e-07 -1.192469e-29)
(-1.43166e-06 7.419319e-07 6.187768e-30)
(-1.263941e-06 7.388897e-07 -6.464336e-30)
(-3.686914e-07 1.639227e-07 -4.408084e-30)
(-9.735458e-07 4.301433e-07 0)
(-1.375926e-06 6.243094e-07 -2.638722e-32)
(-1.590839e-06 7.869386e-07 6.313622e-30)
(-1.64325e-06 9.039253e-07 -5.974252e-30)
(-1.558191e-06 9.635477e-07 0)
(-1.367434e-06 9.58038e-07 7.061451e-30)
(-4.164056e-07 1.889836e-07 0)
(-1.090593e-06 5.047767e-07 -5.731075e-30)
(-1.534397e-06 7.439915e-07 0)
(-1.766897e-06 9.442205e-07 6.275871e-30)
(-1.818657e-06 1.089801e-06 3.734003e-32)
(-1.716657e-06 1.164784e-06 5.965025e-32)
(-1.499015e-06 1.160111e-06 7.693984e-30)
(-4.716252e-07 2.124905e-07 0)
(-1.226768e-06 5.745706e-07 -1.143266e-29)
(-1.719639e-06 8.56352e-07 2.652647e-33)
(-1.97412e-06 1.093267e-06 1.257228e-33)
(-2.025775e-06 1.267651e-06 0)
(-1.90545e-06 1.359425e-06 0)
(-1.657506e-06 1.357845e-06 0)
(-5.348725e-07 2.357495e-07 -4.303966e-30)
(-1.382279e-06 6.438062e-07 -5.57165e-30)
(-1.931017e-06 9.683336e-07 2.710273e-32)
(-2.211004e-06 1.242678e-06 1.604942e-32)
(-2.263246e-06 1.447193e-06 0)
(-2.123262e-06 1.557661e-06 -7.671327e-30)
(-1.841569e-06 1.561452e-06 8.359263e-33)
(-6.065001e-07 2.597229e-07 -4.033633e-30)
(-1.557124e-06 7.154674e-07 -5.275967e-30)
(-2.168164e-06 1.084594e-06 7.899743e-32)
(-2.476607e-06 1.398179e-06 6.671343e-32)
(-2.52998e-06 1.634768e-06 0)
(-2.368591e-06 1.766712e-06 -7.83852e-30)
(-2.048712e-06 1.778557e-06 6.150698e-32)
(-6.867494e-07 2.850758e-07 -3.598147e-30)
(-1.751031e-06 7.912055e-07 -9.623223e-30)
(-2.430215e-06 1.207322e-06 -5.275923e-30)
(-2.769004e-06 1.561951e-06 0)
(-2.82273e-06 1.831989e-06 -1.109302e-30)
(-2.639917e-06 1.991426e-06 -1.440094e-30)
(-2.273975e-06 2.013584e-06 -2.560101e-31)
(-7.756732e-07 3.120332e-07 -2.979234e-30)
(-1.963872e-06 8.712262e-07 -8.257125e-30)
(-2.716073e-06 1.336599e-06 -9.407047e-30)
(-3.08595e-06 1.735005e-06 -5.596426e-30)
(-3.139576e-06 2.040358e-06 -1.84079e-31)
(-2.927077e-06 2.228468e-06 -7.865306e-30)
(-2.509847e-06 2.264348e-06 9.104486e-30)
(-8.733331e-07 3.398905e-07 0)
(-2.195345e-06 9.537475e-07 -3.213054e-30)
(-3.023769e-06 1.469671e-06 -3.909244e-30)
(-3.422716e-06 1.912805e-06 -9.480063e-30)
(-3.468699e-06 2.255362e-06 0)
(-3.219137e-06 2.472627e-06 -7.576146e-30)
(-2.744936e-06 2.524313e-06 -5.350823e-33)
(-9.799599e-07 3.673315e-07 1.108281e-30)
(-2.444471e-06 1.035342e-06 0)
(-3.350084e-06 1.601323e-06 0)
(-3.773376e-06 2.088254e-06 -2.680724e-31)
(-3.802259e-06 2.466481e-06 4.826694e-30)
(-3.505041e-06 2.710908e-06 0)
(-2.963013e-06 2.77876e-06 -8.656135e-30)
(-1.095693e-06 3.926025e-07 -4.818467e-31)
(-2.709691e-06 1.110967e-06 0)
(-3.690926e-06 1.722987e-06 0)
(-4.130235e-06 2.248865e-06 2.885314e-30)
(-4.12852e-06 2.656859e-06 8.679876e-30)
(-3.770023e-06 2.922075e-06 -6.183383e-30)
(-3.147337e-06 3.007269e-06 0)
(-1.220546e-06 4.133506e-07 -1.923791e-30)
(-2.989562e-06 1.173342e-06 -1.01323e-31)
(-4.042361e-06 1.822473e-06 -7.106559e-31)
(-4.485428e-06 2.37814e-06 -4.363535e-31)
(-4.434765e-06 2.806894e-06 -5.425368e-31)
(-3.996609e-06 3.081466e-06 -5.031586e-30)
(-3.259986e-06 3.171673e-06 0)
(-1.354938e-06 4.261779e-07 0)
(-3.284075e-06 1.212293e-06 4.133808e-30)
(-4.401817e-06 1.883177e-06 -2.815514e-30)
(-4.832203e-06 2.453537e-06 0)
(-4.707204e-06 2.887499e-06 -2.406878e-30)
(-4.150933e-06 3.157278e-06 -3.03562e-30)
(-3.266417e-06 3.236462e-06 -1.703295e-30)
(-1.500153e-06 4.261897e-07 6.490513e-30)
(-3.59532e-06 1.214246e-06 7.141993e-30)
(-4.769707e-06 1.883876e-06 -5.565135e-30)
(-5.167442e-06 2.446744e-06 0)
(-4.937238e-06 2.864644e-06 1.604029e-30)
(-4.22129e-06 3.108821e-06 -1.376194e-34)
(-3.14129e-06 3.155131e-06 -2.106197e-30)
(-1.658446e-06 4.070991e-07 9.495788e-30)
(-3.928474e-06 1.16161e-06 1.075295e-29)
(-5.152211e-06 1.797085e-06 -8.922929e-30)
(-5.495667e-06 2.321733e-06 0)
(-5.124642e-06 2.695413e-06 0)
(-4.199656e-06 2.886128e-06 2.062454e-31)
(-2.865085e-06 2.867381e-06 2.448377e-29)
(-1.8345e-06 3.613292e-07 1.313022e-29)
(-4.296043e-06 1.032345e-06 1.530042e-29)
(-5.566348e-06 1.587744e-06 0)
(-5.835221e-06 2.033509e-06 -8.222228e-30)
(-5.286794e-06 2.328378e-06 2.324275e-30)
(-4.099193e-06 2.435994e-06 2.977512e-30)
(-2.442625e-06 2.312502e-06 -9.041078e-30)
(-2.030674e-06 2.788477e-07 1.727722e-29)
(-4.716053e-06 7.969067e-07 0)
(-6.045275e-06 1.21204e-06 1.851006e-29)
(-6.226635e-06 1.525252e-06 -1.336549e-29)
(-5.467313e-06 1.697879e-06 1.051947e-29)
(-3.965657e-06 1.693783e-06 1.203093e-29)
(-1.91473e-06 1.466455e-06 8.853527e-31)
(-2.262794e-06 1.498582e-07 0)
(-5.233978e-06 4.273952e-07 0)
(-6.652173e-06 6.174998e-07 4.670626e-29)
(-6.746204e-06 7.266544e-07 0)
(-5.746738e-06 7.183736e-07 3.021075e-29)
(-3.873915e-06 5.588304e-07 9.898754e-30)
(-1.350409e-06 2.054019e-07 -3.995787e-30)
(-2.57129e-06 -3.663449e-08 2.792602e-29)
(-5.911732e-06 -1.130518e-07 -3.26261e-29)
(-7.496128e-06 -2.570354e-07 -2.97032e-29)
(-7.533731e-06 -4.412693e-07 0)
(-6.273085e-06 -7.086306e-07 2.053929e-29)
(-3.963117e-06 -1.088118e-06 0)
(-8.56919e-07 -1.617348e-06 2.257762e-30)
(-2.989175e-06 -2.939709e-07 3.426122e-29)
(-6.867941e-06 -8.581907e-07 -4.119937e-29)
(-8.751055e-06 -1.457496e-06 -1.136345e-28)
(-8.843368e-06 -2.058592e-06 -6.914474e-29)
(-7.312284e-06 -2.676301e-06 2.236532e-29)
(-4.489412e-06 -3.36781e-06 -5.269082e-30)
(-6.323547e-07 -4.16296e-06 5.906525e-30)
(-3.581921e-06 -6.324972e-07 -1.16695e-31)
(-8.308725e-06 -1.833353e-06 -4.532393e-31)
(-1.072438e-05 -3.029114e-06 -4.984413e-29)
(-1.104046e-05 -4.162815e-06 -7.853977e-29)
(-9.32201e-06 -5.249455e-06 4.526199e-29)
(-5.925584e-06 -6.363085e-06 -1.230376e-29)
(-1.100341e-06 -7.551434e-06 -2.775727e-29)
(-4.444607e-06 -1.060324e-06 1.323049e-31)
(-1.049816e-05 -3.063926e-06 5.146793e-31)
(-1.385011e-05 -4.996632e-06 -5.361652e-29)
(-1.470774e-05 -6.782031e-06 -1.055252e-29)
(-1.310648e-05 -8.456272e-06 5.949464e-29)
(-9.091578e-06 -1.007903e-05 -2.009511e-29)
(-3.030127e-06 -1.180207e-05 0)
(-5.706134e-06 -1.586288e-06 0)
(-1.381228e-05 -4.570508e-06 0)
(-1.874734e-05 -7.385378e-06 -6.847592e-29)
(-2.074546e-05 -9.934179e-06 -7.362198e-29)
(-1.968303e-05 -1.22329e-05 -1.241994e-28)
(-1.540716e-05 -1.444106e-05 -1.112407e-28)
(-7.721998e-06 -1.67709e-05 0)
(-7.52388e-06 -2.22728e-06 3.272905e-31)
(-1.871251e-05 -6.395688e-06 -1.257905e-30)
(-2.617205e-05 -1.02448e-05 -4.290142e-30)
(-3.011788e-05 -1.363091e-05 0)
(-3.046946e-05 -1.657686e-05 -1.358866e-28)
(-2.63928e-05 -1.924082e-05 1.961592e-29)
(-1.722274e-05 -2.211528e-05 4.440367e-29)
(-1.006954e-05 -3.019259e-06 8.173941e-29)
(-2.57046e-05 -8.639881e-06 -1.40633e-30)
(-3.694929e-05 -1.371857e-05 9.556325e-29)
(-4.40016e-05 -1.803299e-05 0)
(-4.672077e-05 -2.156352e-05 -9.885027e-29)
(-4.407137e-05 -2.444687e-05 7.323166e-29)
(-3.511433e-05 -2.733209e-05 2.523748e-28)
(-1.349692e-05 -4.030649e-06 9.397243e-29)
(-3.525746e-05 -1.150417e-05 1.145375e-28)
(-5.184567e-05 -1.812863e-05 1.113182e-28)
(-6.348381e-05 -2.356808e-05 1.444945e-29)
(-6.99893e-05 -2.771443e-05 3.79027e-29)
(-7.065414e-05 -3.061889e-05 -1.52136e-29)
(-6.352146e-05 -3.257419e-05 1.076959e-28)
(-1.786568e-05 -5.351359e-06 0)
(-4.76914e-05 -1.529857e-05 -1.293383e-28)
(-7.147035e-05 -2.403629e-05 -1.283424e-28)
(-8.928544e-05 -3.105795e-05 -7.785168e-30)
(-0.0001007239 -3.613898e-05 1.351809e-28)
(-0.0001054995 -3.902778e-05 2.802496e-29)
(-0.0001039493 -3.897104e-05 0)
(-2.317982e-05 -7.111398e-06 -1.184856e-28)
(-6.315822e-05 -2.04534e-05 -2.875956e-28)
(-9.609876e-05 -3.22166e-05 -1.271947e-28)
(-0.0001214087 -4.167226e-05 -2.828157e-28)
(-0.000138298 -4.83987e-05 1.594266e-28)
(-0.000150759 -5.166309e-05 -9.051519e-29)
(-0.0001555997 -5.013503e-05 1.272484e-26)
(-2.971779e-05 -9.553647e-06 -1.298804e-28)
(-8.151527e-05 -2.746134e-05 1.583928e-30)
(-0.0001251121 -4.349458e-05 0)
(-0.0001596058 -5.65189e-05 -6.574439e-30)
(-0.0001837963 -6.531632e-05 -3.123361e-28)
(-0.0002093373 -6.79696e-05 -1.745648e-26)
(-0.0002185124 -6.382123e-05 4.587724e-26)
(-3.734012e-05 -1.280303e-05 1.417007e-28)
(-0.0001020794 -3.677776e-05 -3.036182e-30)
(-0.0001577195 -5.830178e-05 -6.333103e-30)
(-0.000204802 -7.610306e-05 4.153463e-28)
(-0.0002426995 -8.734171e-05 4.841283e-26)
(-0.0002691463 -9.215106e-05 -5.556793e-26)
(-0.0002868262 -0.000112419 -7.523864e-26)
(-4.492875e-05 -1.680482e-05 1.521262e-28)
(-0.0001213363 -4.820336e-05 0)
(-0.00019646 -7.730226e-05 -2.554622e-29)
(-0.0002600709 -0.0001024087 2.82444e-26)
(-0.0002982718 -0.0001222382 1.050515e-25)
(-0.000338667 -0.0001548843 -8.929115e-27)
(-0.000409446 -0.0002450112 -9.147258e-26)
(-5.029085e-05 -2.13678e-05 0)
(-0.0001380348 -6.226079e-05 -2.609138e-29)
(-0.0002404471 -0.000102345 7.419601e-27)
(-0.0003052162 -0.0001353294 2.888605e-26)
(-0.0003615548 -0.000172163 -4.314278e-26)
(-0.0004561285 -0.000256232 -1.906062e-25)
(-0.00150908 -0.002290511 5.794541e-25)
(-6.289568e-05 -2.700196e-05 0)
(-0.0001563422 -8.000045e-05 -1.829299e-26)
(-0.0002653043 -0.0001371373 -6.7609e-26)
(-0.0003581283 -0.0001881619 -2.270926e-27)
(-0.0004753837 -0.0002878908 -6.155418e-26)
(-0.001545363 -0.002212723 -6.720709e-25)
(-0.00251629 -0.004215133 3.81838e-24)
(-0.000106347 -3.344765e-05 1.796682e-28)
(-0.0001808955 -9.537852e-05 2.957604e-26)
(-0.0002911907 -0.0001656897 1.898522e-26)
(-0.0004211863 -0.0002953788 6.753411e-27)
(-0.001240295 -0.001776071 -2.470634e-25)
(-0.002712566 -0.004642764 -1.3581e-24)
(-0.00241268 -0.003370659 -4.049004e-24)
(-0.0001028579 -3.349075e-05 -1.604493e-27)
(-0.0001862716 -0.0001033777 2.718907e-26)
(-0.0003403033 -0.000276352 -1.372714e-26)
(-0.0008244431 -0.001190478 -5.182079e-26)
(-0.00244798 -0.004550805 8.322659e-25)
(-0.00265992 -0.004553125 4.064734e-24)
(-0.002262076 -0.002033369 8.379292e-24)
(-9.943324e-05 -1.566616e-05 -7.5172e-27)
(-0.0001953046 -0.0001559075 2.76301e-26)
(-0.0004722513 -0.0007330476 -5.247462e-26)
(-0.001570138 -0.003235201 6.091653e-26)
(-0.002603655 -0.005365216 1.412781e-24)
(-0.002242099 -0.003426699 3.769888e-24)
(-0.001972256 -0.00106488 -8.408996e-25)
(-5.537919e-06 -4.374615e-05 -6.744178e-27)
(-0.0002157574 -0.0002882077 1.687617e-26)
(-0.0007216463 -0.001640699 2.437453e-26)
(-0.001996042 -0.004989155 1.826013e-25)
(-0.002266198 -0.004864301 -3.596958e-25)
(-0.001956425 -0.002481405 -1.218424e-24)
(-0.001837009 -0.0004683134 -1.815515e-24)
(-4.87158e-05 -2.495245e-05 -1.530908e-26)
(-0.0002479038 -0.0005845824 -3.004803e-27)
(-0.0009914961 -0.002973905 -9.313609e-26)
(-0.001929532 -0.005565515 -1.989914e-25)
(-0.001884046 -0.004039239 1.195388e-24)
(-0.001687961 -0.001717924 3.031655e-24)
(-0.001638441 0.0002146661 1.111507e-24)
(-6.99938e-05 -5.037831e-05 -1.645303e-26)
(-0.0002702144 -0.0008997119 -4.848135e-26)
(-0.001098565 -0.004156721 -1.580843e-24)
(-0.001611317 -0.005309884 -2.252041e-24)
(-0.001541814 -0.003273157 4.962687e-24)
(-0.001446936 -0.001060113 5.532423e-24)
(-0.001380584 0.0008739044 2.88015e-24)
(-4.472503e-05 -6.760462e-05 -1.023605e-26)
(-0.0002950779 -0.001404237 7.424986e-27)
(-0.0009679676 -0.004622301 1.94369e-25)
(-0.001261626 -0.004863173 3.543368e-25)
(-0.001235159 -0.002716601 -1.760226e-24)
(-0.001218021 -0.000575648 -1.970054e-24)
(-0.001154499 0.001547612 -2.708019e-24)
(-1.07696e-05 -0.0001496974 7.817491e-28)
(-0.000289342 -0.001850683 -1.47449e-26)
(-0.0007927761 -0.004820754 -3.437703e-26)
(-0.0009580785 -0.004437647 -4.03766e-25)
(-0.0009404218 -0.002263935 -2.863108e-25)
(-0.0009140682 -0.0001446791 3.757007e-25)
(-0.0009565941 0.001834683 -9.058868e-25)
(-1.059832e-05 -0.0002107566 7.994025e-27)
(-0.0002447716 -0.002234691 4.92026e-26)
(-0.0005850077 -0.004861837 -1.110691e-25)
(-0.0006646364 -0.00407476 -3.620668e-25)
(-0.0006392005 -0.001924475 -1.648634e-25)
(-0.0005785949 0.000124087 1.805429e-24)
(-0.0005484536 0.002125985 3.557744e-24)
(-2.02986e-05 -0.0002856233 6.645249e-27)
(-0.0001608492 -0.002385881 5.724622e-26)
(-0.0003508631 -0.004818059 1.359801e-25)
(-0.0003746757 -0.003841148 2.054089e-25)
(-0.000332359 -0.001739861 5.218922e-26)
(-0.0003022498 0.0002700273 3.251741e-24)
(-0.0002568375 0.002263514 6.747445e-24)
(-1.288045e-05 -0.0002700089 -1.176051e-27)
(-4.791709e-05 -0.002356831 1.603849e-26)
(-0.0001032365 -0.004787985 2.462867e-25)
(-9.494103e-05 -0.003825908 4.569776e-25)
(-3.436294e-05 -0.00173055 1.471888e-24)
(-5.053685e-05 0.0002533452 5.078725e-24)
(6.228526e-07 0.00217701 6.531675e-24)
(2.315516e-05 -0.0002147246 -6.335696e-27)
(5.41934e-05 -0.002138922 -6.621904e-26)
(0.0001394558 -0.004780081 1.041074e-25)
(0.0001804629 -0.004035942 1.03592e-25)
(0.0002556362 -0.001898364 1.390426e-25)
(0.0003419585 0.0001347653 -1.069286e-24)
(0.0004281297 0.00195961 -3.861117e-24)
(2.611531e-06 -0.0001368744 -1.168941e-27)
(0.0001400605 -0.001708557 -2.179039e-26)
(0.0003892959 -0.00468428 2.338653e-26)
(0.0004773486 -0.004393801 -2.690164e-26)
(0.0005531227 -0.002261781 1.145566e-26)
(0.0007107539 -0.0001835401 1.792905e-24)
(0.0007922282 0.001871491 -1.622456e-24)
(-4.437507e-06 -6.343773e-05 -7.922062e-27)
(0.0001937877 -0.001213662 -5.567315e-26)
(0.0006213317 -0.00439991 -2.251128e-25)
(0.0007986504 -0.004814492 1.253971e-25)
(0.0008359283 -0.002735478 3.030949e-25)
(0.0009289961 -0.0006187276 9.974255e-26)
(0.0009808914 0.001520855 -4.296549e-25)
(1.359652e-06 -5.253118e-05 -7.291843e-28)
(0.0002038569 -0.000786514 3.279432e-26)
(0.0007861177 -0.003798186 -1.433461e-24)
(0.001166801 -0.005246565 -5.807815e-24)
(0.001153399 -0.003351707 -2.142454e-24)
(0.001187384 -0.001143193 -3.732457e-24)
(0.001270945 0.0007876517 3.38655e-24)
(4.367769e-05 -5.535255e-05 -1.535502e-26)
(0.0001740246 -0.0003486706 -4.826919e-26)
(0.0007196284 -0.002480415 -2.209617e-25)
(0.001498019 -0.005341039 -6.657254e-25)
(0.001514544 -0.004179556 9.319302e-26)
(0.001453275 -0.001848324 -5.841044e-25)
(0.001610929 0.0001530747 -7.314129e-25)
(5.326728e-05 -3.876764e-05 1.46371e-26)
(0.0001799243 -0.0002065535 1.60294e-26)
(0.000529352 -0.001231621 6.960054e-27)
(0.001561007 -0.004409222 -3.653346e-26)
(0.001924573 -0.00498544 6.272359e-25)
(0.001755159 -0.002741591 1.983069e-24)
(0.001779095 -0.0005532495 9.883478e-25)
(0.0001332695 -3.95681e-05 1.109633e-26)
(0.0001773231 -0.000139858 -4.985998e-27)
(0.0003512532 -0.0003896412 -3.062569e-27)
(0.001142131 -0.002381139 -1.732069e-25)
(0.002228809 -0.0050909 -4.393808e-25)
(0.00206328 -0.003776335 -5.716225e-24)
(0.001866137 -0.001357691 -1.986153e-23)
(0.0001217055 -3.265872e-05 1.831772e-27)
(0.0001938823 -0.0001061129 2.985184e-27)
(0.0003152646 -0.0002225785 1.196289e-26)
(0.0006058512 -0.0007206896 -3.657842e-26)
(0.001891943 -0.00353797 4.281244e-25)
(0.002501457 -0.004663599 -2.608712e-24)
(0.002069874 -0.002391983 -1.332106e-23)
(7.41311e-05 -2.798906e-05 1.581682e-28)
(0.0001957575 -8.327249e-05 3.376407e-26)
(0.0003016024 -0.0001369653 6.445202e-28)
(0.0004168623 -0.0002623534 -4.168602e-26)
(0.0008489214 -0.001037844 -1.668998e-25)
(0.002322897 -0.003847599 -7.006685e-25)
(0.002422865 -0.003576122 -8.276251e-24)
(6.432083e-05 -2.366305e-05 0)
(0.0001571626 -6.88222e-05 -6.492899e-27)
(0.0002538067 -0.0001137396 -1.047732e-25)
(0.0003608961 -0.0001457189 -5.018446e-26)
(0.0004633305 -0.0002407551 -2.374738e-26)
(0.001043017 -0.001248197 -1.382931e-25)
(0.002339015 -0.003566622 -4.644091e-24)
(5.131376e-05 -1.867673e-05 0)
(0.0001459189 -5.442977e-05 5.686786e-30)
(0.0002293287 -8.758264e-05 -1.772022e-26)
(0.0002941628 -0.0001173928 -1.352335e-26)
(0.0003611069 -0.0001368227 -3.472345e-26)
(0.0004342383 -0.000191813 -5.717796e-26)
(0.001038053 -0.001224502 -5.075626e-25)
(4.368855e-05 -1.461199e-05 1.549371e-28)
(0.0001201637 -4.173848e-05 0)
(0.0001866693 -6.66205e-05 0)
(0.0002449156 -8.969882e-05 -3.378694e-26)
(0.0002960551 -0.000106935 -1.080604e-25)
(0.0003352796 -0.0001115203 4.529342e-27)
(0.0003778907 -0.0001375062 -2.033053e-25)
(3.615488e-05 -1.122217e-05 1.461055e-28)
(9.980518e-05 -3.214138e-05 2.657976e-30)
(0.0001549339 -5.084968e-05 4.558791e-30)
(0.0001958956 -6.652127e-05 4.810975e-29)
(0.0002290011 -7.937634e-05 -2.070987e-26)
(0.0002623714 -8.545586e-05 3.576904e-26)
(0.0002801626 -8.199883e-05 -4.005506e-26)
(2.889034e-05 -8.504162e-06 0)
(7.919901e-05 -2.436081e-05 -1.714771e-28)
(0.0001223212 -3.836274e-05 0)
(0.0001567212 -4.948207e-05 1.459703e-29)
(0.0001786353 -5.766718e-05 3.453371e-29)
(0.0001966505 -6.284461e-05 7.430827e-27)
(0.0002050641 -6.334523e-05 -5.334338e-27)
(2.267355e-05 -6.44487e-06 0)
(6.146653e-05 -1.847144e-05 1.559368e-28)
(9.353689e-05 -2.899387e-05 -1.556639e-28)
(0.0001188654 -3.726775e-05 0)
(0.0001361219 -4.293837e-05 4.316236e-29)
(0.0001460842 -4.604037e-05 -4.028934e-29)
(0.0001463865 -4.618331e-05 2.369624e-26)
(1.756677e-05 -4.910797e-06 0)
(4.670815e-05 -1.402151e-05 4.224764e-28)
(6.988478e-05 -2.201687e-05 2.619051e-31)
(8.73067e-05 -2.838661e-05 2.940194e-28)
(9.861626e-05 -3.283172e-05 3.972944e-29)
(0.0001035978 -3.513352e-05 -1.177009e-28)
(0.000101226 -3.496996e-05 2.370433e-28)
(1.339537e-05 -3.717835e-06 -1.004498e-28)
(3.485968e-05 -1.061006e-05 1.271174e-28)
(5.116758e-05 -1.673261e-05 -7.38554e-32)
(6.24783e-05 -2.17466e-05 2.219323e-28)
(6.84445e-05 -2.552626e-05 0)
(6.862979e-05 -2.822945e-05 0)
(6.059242e-05 -3.041889e-05 1.194268e-28)
(1.014812e-05 -2.76588e-06 -8.790168e-29)
(2.57957e-05 -7.911677e-06 1.102578e-28)
(3.697284e-05 -1.257068e-05 -1.049564e-28)
(4.383786e-05 -1.651384e-05 -9.936193e-29)
(4.618978e-05 -1.971458e-05 0)
(4.317107e-05 -2.233527e-05 0)
(3.389661e-05 -2.502412e-05 1.114241e-28)
(7.744396e-06 -1.991511e-06 7.677679e-29)
(1.919776e-05 -5.715189e-06 9.940354e-29)
(2.674208e-05 -9.148509e-06 4.268135e-30)
(3.060931e-05 -1.214881e-05 -7.823337e-29)
(3.069372e-05 -1.472782e-05 -4.619393e-29)
(2.642372e-05 -1.706863e-05 7.568809e-29)
(1.724213e-05 -1.960943e-05 -3.062562e-29)
(6.030301e-06 -1.353659e-06 6.641125e-29)
(1.457723e-05 -3.890955e-06 1.182102e-30)
(1.972979e-05 -6.27374e-06 -3.911494e-30)
(2.178394e-05 -8.41528e-06 -5.551261e-30)
(2.065085e-05 -1.032687e-05 0)
(1.618525e-05 -1.216425e-05 6.886629e-29)
(8.543377e-06 -1.416843e-05 -4.207036e-29)
(4.842591e-06 -8.299763e-07 0)
(1.144435e-05 -2.382337e-06 2.10294e-30)
(1.511498e-05 -3.875282e-06 3.545073e-30)
(1.612304e-05 -5.240044e-06 -1.561328e-28)
(1.454579e-05 -6.527395e-06 -4.920354e-29)
(1.045998e-05 -7.804673e-06 -7.096402e-29)
(4.314539e-06 -9.24263e-06 -1.521341e-29)
(4.016741e-06 -4.07343e-07 2.433309e-31)
(9.354537e-06 -1.165091e-06 9.452686e-31)
(1.215169e-05 -1.929543e-06 0)
(1.267264e-05 -2.650764e-06 2.392874e-31)
(1.10125e-05 -3.368769e-06 -4.237125e-29)
(7.562859e-06 -4.178832e-06 -3.398699e-29)
(2.607234e-06 -5.146491e-06 1.484902e-29)
(3.433284e-06 -7.966686e-08 -3.955724e-29)
(7.94774e-06 -2.20792e-07 5.006946e-29)
(1.024516e-05 -4.08065e-07 -7.578348e-29)
(1.056317e-05 -6.260308e-07 9.8112e-29)
(9.102664e-06 -9.098181e-07 -2.875377e-29)
(6.226996e-06 -1.339752e-06 0)
(2.214904e-06 -1.969476e-06 -1.276639e-29)
(3.006035e-06 1.624088e-07 -3.288254e-29)
(6.981389e-06 4.810839e-07 3.885808e-29)
(8.982075e-06 7.180054e-07 -3.590406e-29)
(9.247849e-06 8.819868e-07 0)
(8.060345e-06 9.105632e-07 2.633712e-29)
(5.696886e-06 7.554479e-07 0)
(2.427725e-06 3.524456e-07 -1.31279e-29)
(2.676153e-06 3.317951e-07 0)
(6.258989e-06 9.70552e-07 0)
(8.079068e-06 1.506061e-06 5.768567e-29)
(8.393936e-06 1.927446e-06 0)
(7.467013e-06 2.182509e-06 4.035731e-29)
(5.542945e-06 2.217613e-06 1.479232e-29)
(2.859847e-06 1.964946e-06 -8.638284e-30)
(2.417984e-06 4.439189e-07 2.127654e-29)
(5.674966e-06 1.287226e-06 0)
(7.381882e-06 2.012407e-06 2.159518e-29)
(7.772773e-06 2.60613e-06 -2.03451e-29)
(7.08339e-06 3.01448e-06 1.498323e-29)
(5.535405e-06 3.182873e-06 2.05639e-29)
(3.337942e-06 3.043061e-06 4.929115e-30)
(2.190904e-06 5.096947e-07 1.658944e-29)
(5.178611e-06 1.472688e-06 1.923414e-29)
(6.797704e-06 2.305915e-06 0)
(7.26149e-06 3.00377e-06 -1.630592e-29)
(6.779465e-06 3.511292e-06 -2.579794e-30)
(5.552378e-06 3.776565e-06 1.615696e-29)
(3.767573e-06 3.736934e-06 1.017849e-29)
(1.981984e-06 5.398706e-07 1.269156e-29)
(4.730125e-06 1.556247e-06 1.46395e-29)
(6.271943e-06 2.441152e-06 -1.271152e-29)
(6.793531e-06 3.192729e-06 0)
(6.484724e-06 3.759499e-06 0)
(5.527209e-06 4.096945e-06 3.523662e-30)
(4.08088e-06 4.164287e-06 -2.239583e-29)
(1.790784e-06 5.447268e-07 9.345697e-30)
(4.315963e-06 1.567508e-06 1.061584e-29)
(5.776254e-06 2.461277e-06 -8.933566e-30)
(6.334282e-06 3.228543e-06 0)
(6.16054e-06 3.821891e-06 -1.824869e-30)
(5.41713e-06 4.201912e-06 -2.612956e-34)
(4.239072e-06 4.333482e-06 2.428472e-30)
(1.613258e-06 5.323548e-07 0)
(3.925641e-06 1.528686e-06 7.20532e-30)
(5.297386e-06 2.400564e-06 -5.793347e-30)
(5.869806e-06 3.154785e-06 0)
(5.793921e-06 3.74722e-06 3.121858e-30)
(5.212387e-06 4.140623e-06 3.528657e-30)
(4.239726e-06 4.298477e-06 1.996189e-30)
(1.44854e-06 5.08554e-07 -4.126484e-30)
(3.555446e-06 1.456649e-06 1.170937e-31)
(4.831519e-06 2.285662e-06 -2.965456e-30)
(5.398194e-06 3.006158e-06 5.096826e-31)
(5.388327e-06 3.577071e-06 6.101185e-31)
(4.924895e-06 3.962512e-06 -2.848338e-30)
(4.106291e-06 4.121716e-06 0)
(1.295286e-06 4.77527e-07 -4.313114e-30)
(3.204204e-06 1.364083e-06 0)
(4.37968e-06 2.137131e-06 0)
(4.924659e-06 2.810441e-06 -3.520215e-32)
(4.955336e-06 3.345705e-06 3.688162e-30)
(4.568636e-06 3.710044e-06 -4.280166e-30)
(3.868636e-06 3.853645e-06 0)
(1.152949e-06 4.428747e-07 -5.393251e-31)
(2.873041e-06 1.261239e-06 7.794209e-32)
(3.945592e-06 1.971391e-06 1.250248e-31)
(4.457713e-06 2.590081e-06 3.435514e-31)
(4.510846e-06 3.081925e-06 3.831979e-30)
(4.183748e-06 3.415345e-06 0)
(3.567515e-06 3.534259e-06 -7.207752e-30)
(1.021886e-06 4.07402e-07 8.462957e-33)
(2.563593e-06 1.155525e-06 -1.354104e-30)
(3.533706e-06 1.800156e-06 -2.072445e-30)
(4.005805e-06 2.361112e-06 -6.336036e-30)
(4.068477e-06 2.805683e-06 0)
(3.788538e-06 3.103174e-06 -6.204921e-30)
(3.245287e-06 3.201594e-06 -7.441271e-33)
(9.022048e-07 3.725814e-07 -1.819802e-30)
(2.276946e-06 1.051841e-06 -5.342019e-30)
(3.147826e-06 1.63193e-06 -6.499251e-30)
(3.576708e-06 2.135879e-06 -3.913125e-30)
(3.640154e-06 2.533172e-06 2.539376e-31)
(3.3964e-06 2.793869e-06 -6.714635e-30)
(2.915495e-06 2.873498e-06 7.536236e-30)
(7.934435e-07 3.393422e-07 -2.637887e-30)
(2.013876e-06 9.530624e-07 -7.292024e-30)
(2.790711e-06 1.472028e-06 -4.15282e-30)
(3.175608e-06 1.921487e-06 0)
(3.231933e-06 2.274619e-06 1.632742e-30)
(3.017119e-06 2.499498e-06 2.228441e-30)
(2.592955e-06 2.562548e-06 4.323203e-31)
(6.95187e-07 3.084269e-07 -3.265986e-30)
(1.774409e-06 8.610818e-07 -4.393415e-30)
(2.463902e-06 1.323076e-06 -1.34725e-31)
(2.806342e-06 1.721982e-06 -1.176257e-31)
(2.85622e-06 2.03371e-06 0)
(2.661383e-06 2.224749e-06 -7.059409e-30)
(2.288056e-06 2.27443e-06 -1.49768e-31)
(6.070684e-07 2.797492e-07 -3.736038e-30)
(1.558311e-06 7.759421e-07 -4.928041e-30)
(2.16782e-06 1.185236e-06 -6.394091e-32)
(2.470383e-06 1.537157e-06 -4.170575e-32)
(2.51385e-06 1.80966e-06 0)
(2.339859e-06 1.973109e-06 -7.212563e-30)
(2.007859e-06 2.011132e-06 -1.912355e-31)
(5.284842e-07 2.531608e-07 -1.509044e-33)
(1.365017e-06 6.968231e-07 -1.059477e-29)
(1.90239e-06 1.056902e-06 -2.088676e-32)
(2.168952e-06 1.365453e-06 -2.701531e-32)
(2.206419e-06 1.602096e-06 0)
(2.051547e-06 1.741185e-06 0)
(1.756423e-06 1.769572e-06 0)
(4.589862e-07 2.279142e-07 0)
(1.193731e-06 6.215127e-07 -5.535212e-30)
(1.667159e-06 9.348957e-07 0)
(1.902124e-06 1.202591e-06 6.175313e-30)
(1.934505e-06 1.405888e-06 3.104704e-32)
(1.797269e-06 1.523371e-06 2.417123e-32)
(1.535513e-06 1.543829e-06 7.54345e-30)
(3.982411e-07 2.029393e-07 -4.432141e-30)
(1.043801e-06 5.467641e-07 0)
(1.461816e-06 8.13914e-07 -7.438581e-33)
(1.669689e-06 1.042341e-06 6.350089e-30)
(1.698291e-06 1.213452e-06 -6.53291e-30)
(1.577841e-06 1.311296e-06 0)
(1.345927e-06 1.325715e-06 7.351778e-30)
(3.459388e-07 1.76576e-07 -4.474432e-30)
(9.149202e-07 4.68199e-07 0)
(1.28624e-06 6.872948e-07 3.044536e-33)
(1.472817e-06 8.747911e-07 5.78059e-33)
(1.498515e-06 1.013454e-06 -1.291555e-29)
(1.393848e-06 1.093771e-06 6.764044e-30)
(1.188212e-06 1.104842e-06 -7.157629e-30)
(3.017504e-07 1.469921e-07 0)
(8.068972e-07 3.799174e-07 -5.648334e-30)
(1.140301e-06 5.454105e-07 8.600834e-33)
(1.310339e-06 6.877802e-07 6.069505e-30)
(1.336677e-06 7.941591e-07 -6.258655e-30)
(1.245569e-06 8.580058e-07 6.538358e-30)
(1.062898e-06 8.688661e-07 1.180335e-33)
(2.655945e-07 1.116615e-07 0)
(7.201121e-07 2.746999e-07 -5.526415e-30)
(1.025254e-06 3.771313e-07 5.64868e-30)
(1.184571e-06 4.679935e-07 5.890936e-30)
(1.213259e-06 5.394905e-07 -5.993221e-30)
(1.133852e-06 5.879786e-07 7.649609e-32)
(9.698748e-07 6.030357e-07 6.561238e-30)
(2.380417e-07 6.731615e-08 0)
(6.566204e-07 1.430565e-07 0)
(9.443557e-07 1.680154e-07 5.429823e-30)
(1.098793e-06 1.974373e-07 -5.613983e-30)
(1.130824e-06 2.300853e-07 1.177128e-33)
(1.060142e-06 2.648456e-07 0)
(9.092875e-07 2.900101e-07 0)
(2.207891e-07 9.271043e-09 -4.046427e-30)
(6.218471e-07 -2.804892e-08 5.090434e-30)
(9.050437e-07 -1.013771e-07 2.554874e-30)
(1.060225e-06 -1.467324e-07 -5.336531e-30)
(1.094697e-06 -1.576842e-07 -1.275989e-33)
(1.027437e-06 -1.336032e-07 1.103855e-31)
(8.820655e-07 -8.955305e-08 1.194863e-34)