/*--------------------------------*- C++ -*----------------------------------*\
| =========                 |                                                 |
| \\      /  F ield         | OpenFOAM: The Open Source CFD Toolbox           |
|  \\    /   O peration     | Version:  2206                                  |
|   \\  /    A nd           | Website:  www.openfoam.com                      |
|    \\/     M anipulation  |                                                 |
\*---------------------------------------------------------------------------*/
FoamFile
{
    version     2.0;
    format      ascii;
    arch        "LSB;label=32;scalar=64";
    class       volScalarField;
    location    "1.4";
    object      k.b;
}
// * * * * * * * * * * * * * * * * * * * * * * * * * * * * * * * * * * * * * //

dimensions      [0 2 -2 0 0 0 0];

internalField   nonuniform List<scalar> 
13078
(
2.175949e-13
1.883762e-10
2.093141e-10
2.106365e-10
2.121383e-10
2.138743e-10
2.158929e-10
1.530674e-13
1.72005e-10
2.08617e-10
2.105438e-10
2.120856e-10
2.138324e-10
2.158492e-10
1.745811e-13
1.715042e-10
2.084751e-10
2.104454e-10
2.120183e-10
2.137794e-10
2.157989e-10
1.635156e-13
1.717806e-10
2.084232e-10
2.103713e-10
2.119558e-10
2.137255e-10
2.157467e-10
1.565925e-13
1.718773e-10
2.083951e-10
2.103394e-10
2.119043e-10
2.136744e-10
2.156956e-10
1.533023e-13
1.719306e-10
2.083842e-10
2.103206e-10
2.118852e-10
2.136302e-10
2.156463e-10
1.514366e-13
1.719347e-10
2.083711e-10
2.103041e-10
2.118724e-10
2.136163e-10
2.156023e-10
1.503659e-13
1.719088e-10
2.083577e-10
2.10294e-10
2.118644e-10
2.136073e-10
2.155905e-10
1.498273e-13
1.718825e-10
2.083588e-10
2.102911e-10
2.118595e-10
2.136004e-10
2.155823e-10
1.497093e-13
1.718393e-10
2.083597e-10
2.102894e-10
2.118559e-10
2.13595e-10
2.155754e-10
1.499532e-13
1.717849e-10
2.083598e-10
2.102882e-10
2.11853e-10
2.135904e-10
2.15569e-10
1.505369e-13
1.717214e-10
2.083591e-10
2.10287e-10
2.118504e-10
2.135861e-10
2.155632e-10
1.514588e-13
1.716512e-10
2.083578e-10
2.102856e-10
2.11848e-10
2.135821e-10
2.155576e-10
1.527479e-13
1.715746e-10
2.083559e-10
2.102835e-10
2.118446e-10
2.135779e-10
2.155517e-10
1.544509e-13
1.714925e-10
2.083528e-10
2.102734e-10
2.118295e-10
2.135724e-10
2.155459e-10
1.566099e-13
1.714052e-10
2.083489e-10
2.102606e-10
2.118172e-10
2.135672e-10
2.155398e-10
1.592836e-13
1.713136e-10
2.083458e-10
2.102571e-10
2.118128e-10
2.135624e-10
2.155335e-10
1.625696e-13
1.712176e-10
2.083425e-10
2.102539e-10
2.118087e-10
2.135574e-10
2.155269e-10
1.665857e-13
1.711166e-10
2.083387e-10
2.102507e-10
2.118038e-10
2.135509e-10
2.155199e-10
1.715005e-13
1.710113e-10
2.083346e-10
2.102462e-10
2.117865e-10
2.13526e-10
2.155109e-10
1.77509e-13
1.709014e-10
2.083303e-10
2.102412e-10
2.117654e-10
2.135057e-10
2.155017e-10
1.848737e-13
1.70787e-10
2.08326e-10
2.102371e-10
2.117582e-10
2.134976e-10
2.154934e-10
1.938984e-13
1.706677e-10
2.083211e-10
2.102324e-10
2.117518e-10
2.134886e-10
2.154827e-10
2.049698e-13
1.705439e-10
2.083162e-10
2.102275e-10
2.117436e-10
2.13462e-10
2.154444e-10
2.185487e-13
1.70415e-10
2.083113e-10
2.102222e-10
2.117347e-10
2.134297e-10
2.154129e-10
2.352145e-13
1.70281e-10
2.083057e-10
2.102163e-10
2.117264e-10
2.134168e-10
2.153985e-10
2.557248e-13
1.701446e-10
2.083001e-10
2.102099e-10
2.117175e-10
2.134047e-10
2.153826e-10
2.805758e-13
1.699843e-10
2.082936e-10
2.102032e-10
2.117075e-10
2.133904e-10
2.153405e-10
3.104618e-13
1.698529e-10
2.082879e-10
2.101958e-10
2.116966e-10
2.133741e-10
2.152903e-10
3.425169e-13
1.694013e-10
2.082725e-10
2.101874e-10
2.116848e-10
2.133585e-10
2.152668e-10
3.76573e-13
1.689534e-10
2.082695e-10
2.101786e-10
2.116719e-10
2.133412e-10
2.152429e-10
4.253534e-13
1.681653e-10
2.082575e-10
2.101671e-10
2.116578e-10
2.133221e-10
2.152159e-10
4.843386e-13
1.671597e-10
2.081981e-10
2.101374e-10
2.116403e-10
2.133007e-10
2.15189e-10
5.550937e-13
1.66844e-10
2.081549e-10
2.101117e-10
2.116207e-10
2.132772e-10
2.151594e-10
6.382637e-13
1.66517e-10
2.081367e-10
2.100801e-10
2.115671e-10
2.132472e-10
2.151269e-10
7.359029e-13
1.661469e-10
2.081137e-10
2.100458e-10
2.115055e-10
2.131716e-10
2.150871e-10
8.512464e-13
1.6574e-10
2.080879e-10
2.100162e-10
2.114538e-10
2.131028e-10
2.150399e-10
9.845062e-13
1.653014e-10
2.080562e-10
2.099851e-10
2.114115e-10
2.130236e-10
2.149199e-10
1.133204e-12
1.64843e-10
2.080165e-10
2.099445e-10
2.113547e-10
2.129341e-10
2.147845e-10
1.274175e-12
1.639092e-10
2.079487e-10
2.098688e-10
2.112407e-10
2.127804e-10
2.145687e-10
1.399954e-12
1.622628e-10
2.078063e-10
2.096957e-10
2.10999e-10
2.124969e-10
2.142892e-10
1.583738e-12
1.605046e-10
2.074728e-10
2.092901e-10
2.10594e-10
2.120974e-10
2.138849e-10
1.78211e-12
1.594959e-10
2.069783e-10
2.087612e-10
2.100472e-10
2.116734e-10
2.135272e-10
1.982307e-12
1.582903e-10
2.064193e-10
2.083246e-10
2.096101e-10
2.111737e-10
2.133264e-10
2.144091e-12
1.565143e-10
2.059557e-10
2.079443e-10
2.092736e-10
2.108786e-10
2.128934e-10
2.246227e-12
1.541194e-10
2.05536e-10
2.074459e-10
2.088263e-10
2.103927e-10
2.122686e-10
2.357635e-12
1.516531e-10
2.050635e-10
2.069677e-10
2.080694e-10
2.0956e-10
2.112642e-10
2.408844e-12
1.501814e-10
2.044576e-10
2.063762e-10
2.072772e-10
2.085415e-10
2.100413e-10
2.340713e-12
1.488975e-10
2.038217e-10
2.05627e-10
2.065133e-10
2.076971e-10
2.090365e-10
2.154148e-12
1.478528e-10
2.032327e-10
2.049718e-10
2.057628e-10
2.06718e-10
2.080148e-10
1.867105e-12
1.459427e-10
2.026791e-10
2.044593e-10
2.051645e-10
2.059478e-10
2.069495e-10
1.443003e-12
1.430529e-10
2.020574e-10
2.039053e-10
2.046054e-10
2.053936e-10
2.062773e-10
1.045984e-12
1.416357e-10
2.014491e-10
2.035387e-10
2.043018e-10
2.052182e-10
2.058102e-10
7.729398e-13
1.407201e-10
2.009879e-10
2.031554e-10
2.040313e-10
2.049307e-10
2.055959e-10
6.410393e-13
1.400449e-10
2.007001e-10
2.029178e-10
2.038789e-10
2.047858e-10
2.056002e-10
6.128263e-13
1.396166e-10
2.005278e-10
2.027915e-10
2.037939e-10
2.047338e-10
2.056165e-10
7.489423e-13
1.395213e-10
2.004631e-10
2.027171e-10
2.037071e-10
2.046394e-10
2.055227e-10
1.018438e-12
1.398166e-10
2.005886e-10
2.027873e-10
2.037225e-10
2.046058e-10
2.054029e-10
1.351633e-12
1.403641e-10
2.00839e-10
2.029792e-10
2.038166e-10
2.046738e-10
2.052973e-10
1.760723e-12
1.411081e-10
2.012178e-10
2.032657e-10
2.039697e-10
2.048186e-10
2.053662e-10
2.153431e-12
1.423855e-10
2.017388e-10
2.035307e-10
2.041902e-10
2.049423e-10
2.057727e-10
2.442672e-12
1.452286e-10
2.023868e-10
2.041467e-10
2.047691e-10
2.054571e-10
2.063507e-10
2.541573e-12
1.471297e-10
2.029188e-10
2.045923e-10
2.052826e-10
2.061178e-10
2.072797e-10
2.539901e-12
1.481892e-10
2.034878e-10
2.052039e-10
2.059721e-10
2.070221e-10
2.082651e-10
2.442825e-12
1.495512e-10
2.041407e-10
2.059425e-10
2.067302e-10
2.079112e-10
2.092635e-10
2.271811e-12
1.511428e-10
2.048074e-10
2.065913e-10
2.075488e-10
2.088824e-10
2.104232e-10
2.094966e-12
1.537292e-10
2.053604e-10
2.071382e-10
2.083351e-10
2.097208e-10
2.113962e-10
1.987303e-12
1.562097e-10
2.058264e-10
2.077252e-10
2.088717e-10
2.102868e-10
2.120898e-10
1.847182e-12
1.580643e-10
2.063152e-10
2.081809e-10
2.093644e-10
2.107137e-10
2.126634e-10
1.687724e-12
1.593354e-10
2.068959e-10
2.086634e-10
2.098945e-10
2.113677e-10
2.130218e-10
1.529138e-12
1.603887e-10
2.074103e-10
2.092144e-10
2.104769e-10
2.119352e-10
2.135946e-10
1.378651e-12
1.619158e-10
2.077461e-10
2.096368e-10
2.109224e-10
2.124107e-10
2.141838e-10
1.260055e-12
1.633058e-10
2.079e-10
2.098293e-10
2.11197e-10
2.127411e-10
2.145223e-10
1.124904e-12
1.641941e-10
2.079739e-10
2.099172e-10
2.113348e-10
2.129089e-10
2.147558e-10
9.82974e-13
1.647318e-10
2.080263e-10
2.09966e-10
2.113981e-10
2.130053e-10
2.148993e-10
8.52341e-13
1.654256e-10
2.080731e-10
2.100068e-10
2.114514e-10
2.130984e-10
2.150266e-10
7.368561e-13
1.660054e-10
2.081048e-10
2.100374e-10
2.115047e-10
2.131844e-10
2.150772e-10
6.408058e-13
1.664644e-10
2.081283e-10
2.100732e-10
2.115616e-10
2.132399e-10
2.151177e-10
5.554384e-13
1.668766e-10
2.081501e-10
2.101064e-10
2.116149e-10
2.132707e-10
2.151526e-10
4.816122e-13
1.671907e-10
2.081941e-10
2.101332e-10
2.116357e-10
2.132958e-10
2.15184e-10
4.199771e-13
1.682018e-10
2.082547e-10
2.101639e-10
2.116541e-10
2.133182e-10
2.152123e-10
3.694667e-13
1.689892e-10
2.082675e-10
2.101759e-10
2.11669e-10
2.133383e-10
2.152402e-10
3.346854e-13
1.694336e-10
2.082708e-10
2.101854e-10
2.116826e-10
2.133564e-10
2.152648e-10
3.025844e-13
1.698858e-10
2.082867e-10
2.101941e-10
2.116949e-10
2.133724e-10
2.152886e-10
2.733521e-13
1.700151e-10
2.082927e-10
2.102017e-10
2.117062e-10
2.13389e-10
2.153391e-10
2.494856e-13
1.701732e-10
2.082993e-10
2.102089e-10
2.117163e-10
2.134035e-10
2.153817e-10
2.299197e-13
1.703072e-10
2.083051e-10
2.102154e-10
2.117254e-10
2.134158e-10
2.153978e-10
2.14071e-13
1.70439e-10
2.083108e-10
2.102215e-10
2.117339e-10
2.134291e-10
2.154124e-10
2.012758e-13
1.705657e-10
2.08316e-10
2.102268e-10
2.11743e-10
2.134614e-10
2.154439e-10
1.910072e-13
1.706875e-10
2.083209e-10
2.102319e-10
2.117512e-10
2.13488e-10
2.154824e-10
1.827131e-13
1.70805e-10
2.083258e-10
2.102367e-10
2.117577e-10
2.134972e-10
2.15493e-10
1.759763e-13
1.709177e-10
2.083301e-10
2.10241e-10
2.117652e-10
2.135054e-10
2.155015e-10
1.705153e-13
1.710264e-10
2.083345e-10
2.102461e-10
2.117864e-10
2.135259e-10
2.155109e-10
1.661324e-13
1.711305e-10
2.083388e-10
2.102506e-10
2.118037e-10
2.13551e-10
2.155201e-10
1.626234e-13
1.712307e-10
2.083427e-10
2.102539e-10
2.118086e-10
2.135575e-10
2.155269e-10
1.597985e-13
1.713264e-10
2.083462e-10
2.102571e-10
2.118129e-10
2.135624e-10
2.155334e-10
1.576112e-13
1.714179e-10
2.083494e-10
2.102608e-10
2.118173e-10
2.135673e-10
2.155398e-10
1.55957e-13
1.715055e-10
2.083537e-10
2.102738e-10
2.118296e-10
2.135725e-10
2.15546e-10
1.547451e-13
1.715884e-10
2.083571e-10
2.10284e-10
2.118449e-10
2.13578e-10
2.155517e-10
1.539044e-13
1.716665e-10
2.083593e-10
2.102862e-10
2.118483e-10
2.135822e-10
2.155574e-10
1.533465e-13
1.717389e-10
2.08361e-10
2.102878e-10
2.118507e-10
2.135859e-10
2.155627e-10
1.530397e-13
1.718058e-10
2.083622e-10
2.10289e-10
2.118531e-10
2.135898e-10
2.155681e-10
1.52982e-13
1.718658e-10
2.083626e-10
2.102901e-10
2.118556e-10
2.135938e-10
2.155738e-10
1.531848e-13
1.719173e-10
2.083624e-10
2.102913e-10
2.118582e-10
2.135982e-10
2.155798e-10
1.536836e-13
1.719557e-10
2.083615e-10
2.10293e-10
2.118615e-10
2.136035e-10
2.155867e-10
1.545423e-13
1.719991e-10
2.083739e-10
2.103006e-10
2.118668e-10
2.136102e-10
2.155966e-10
1.559114e-13
1.720193e-10
2.083836e-10
2.103121e-10
2.118752e-10
2.136208e-10
2.156384e-10
1.580487e-13
1.719967e-10
2.083856e-10
2.103218e-10
2.118877e-10
2.136607e-10
2.156852e-10
1.616274e-13
1.719438e-10
2.083958e-10
2.1034e-10
2.119304e-10
2.137071e-10
2.157342e-10
1.689386e-13
1.718071e-10
2.084221e-10
2.10394e-10
2.119837e-10
2.137577e-10
2.157856e-10
1.80248e-13
1.717857e-10
2.085203e-10
2.10469e-10
2.120456e-10
2.138116e-10
2.15838e-10
1.580789e-13
1.738555e-10
2.086383e-10
2.105727e-10
2.121185e-10
2.138681e-10
2.158904e-10
2.182897e-10
2.213318e-10
2.254408e-10
2.294235e-10
2.366353e-10
2.48662e-10
1.656968e-09
2.182387e-10
2.212652e-10
2.253519e-10
2.293167e-10
2.365013e-10
2.483326e-10
5.841518e-10
2.181843e-10
2.211981e-10
2.252668e-10
2.307009e-10
2.363803e-10
2.481393e-10
5.827651e-10
2.181287e-10
2.211304e-10
2.251764e-10
2.291022e-10
2.362375e-10
2.479464e-10
5.805868e-10
2.180743e-10
2.210625e-10
2.2509e-10
2.28989e-10
2.361045e-10
2.477545e-10
5.783334e-10
2.180206e-10
2.209948e-10
2.250019e-10
2.288808e-10
2.359733e-10
2.475639e-10
5.759635e-10
2.179682e-10
2.209277e-10
2.249144e-10
2.287762e-10
2.359368e-10
2.473761e-10
5.735198e-10
2.179204e-10
2.208613e-10
2.248277e-10
2.286738e-10
2.359031e-10
2.471906e-10
5.710278e-10
2.179083e-10
2.208001e-10
2.247452e-10
2.285692e-10
2.357987e-10
2.470216e-10
5.68496e-10
2.178994e-10
2.207847e-10
2.246682e-10
2.284652e-10
2.356953e-10
2.468535e-10
5.6593e-10
2.178913e-10
2.207733e-10
2.246482e-10
2.283644e-10
2.355924e-10
2.466865e-10
5.633076e-10
2.178834e-10
2.207618e-10
2.246329e-10
2.283425e-10
2.354891e-10
2.465196e-10
5.605775e-10
2.178755e-10
2.207504e-10
2.246171e-10
2.283231e-10
2.354714e-10
2.463498e-10
5.575555e-10
2.178675e-10
2.207388e-10
2.246009e-10
2.283029e-10
2.354517e-10
2.463206e-10
5.521157e-10
2.178594e-10
2.207266e-10
2.245841e-10
2.282819e-10
2.35431e-10
2.462773e-10
5.295654e-10
2.178509e-10
2.20714e-10
2.245667e-10
2.282601e-10
2.35409e-10
2.462347e-10
5.009887e-10
2.178422e-10
2.207009e-10
2.245488e-10
2.28237e-10
2.353771e-10
2.46188e-10
4.670545e-10
2.178332e-10
2.206876e-10
2.245298e-10
2.282022e-10
2.350626e-10
2.461369e-10
4.360277e-10
2.178237e-10
2.206745e-10
2.245104e-10
2.281771e-10
2.350222e-10
2.460842e-10
4.112722e-10
2.178136e-10
2.206606e-10
2.2449e-10
2.281511e-10
2.349889e-10
2.460273e-10
3.85079e-10
2.178033e-10
2.20646e-10
2.244689e-10
2.281239e-10
2.349542e-10
2.459661e-10
3.584229e-10
2.17792e-10
2.206306e-10
2.244469e-10
2.280952e-10
2.349181e-10
2.459038e-10
3.408483e-10
2.177803e-10
2.206143e-10
2.244222e-10
2.280661e-10
2.348739e-10
2.458387e-10
3.256168e-10
2.177651e-10
2.20597e-10
2.244007e-10
2.294155e-10
2.34591e-10
2.457448e-10
3.128623e-10
2.177494e-10
2.205787e-10
2.2437e-10
2.280116e-10
2.344338e-10
2.456699e-10
3.024187e-10
2.177348e-10
2.205595e-10
2.243439e-10
2.27965e-10
2.343804e-10
2.455996e-10
2.927955e-10
2.17716e-10
2.205377e-10
2.243139e-10
2.279272e-10
2.343243e-10
2.455177e-10
2.845075e-10
2.176555e-10
2.205128e-10
2.242801e-10
2.27887e-10
2.342475e-10
2.448704e-10
2.764125e-10
2.176065e-10
2.197259e-10
2.232254e-10
2.278381e-10
2.341776e-10
2.446239e-10
2.711356e-10
2.175784e-10
2.196937e-10
2.231877e-10
2.277944e-10
2.341135e-10
2.445322e-10
2.67733e-10
2.17494e-10
2.195912e-10
2.231521e-10
2.277462e-10
2.340454e-10
2.441689e-10
9.705212e-10
2.174315e-10
2.195077e-10
2.231134e-10
2.276937e-10
2.339717e-10
2.437243e-10
9.003143e-10
2.173907e-10
2.193471e-10
2.230626e-10
2.276369e-10
2.338931e-10
2.43556e-10
7.466212e-10
2.173542e-10
2.192921e-10
2.229026e-10
2.275759e-10
2.33809e-10
2.433627e-10
5.806113e-10
2.173137e-10
2.19233e-10
2.227049e-10
2.275067e-10
2.337191e-10
2.431192e-10
2.647038e-10
2.172681e-10
2.191704e-10
2.225062e-10
2.274092e-10
2.336269e-10
2.4295e-10
2.610956e-10
2.172185e-10
2.190982e-10
2.224301e-10
2.270759e-10
2.335251e-10
2.428185e-10
2.570143e-10
2.171537e-10
2.19013e-10
2.22346e-10
2.267903e-10
2.333968e-10
2.427951e-10
2.666412e-10
2.170602e-10
2.189089e-10
2.222752e-10
2.266378e-10
2.332863e-10
2.4318e-10
2.780948e-10
2.168629e-10
2.18745e-10
2.222621e-10
2.268224e-10
2.332155e-10
2.431747e-10
3.120088e-10
2.165588e-10
2.185797e-10
2.223918e-10
2.27305e-10
2.334984e-10
2.419773e-10
2.878695e-10
2.162741e-10
2.184755e-10
2.224234e-10
2.276241e-10
2.334602e-10
2.398931e-10
2.764552e-10
2.162359e-10
2.185449e-10
2.224681e-10
2.272657e-10
2.326545e-10
2.380874e-10
2.830233e-10
2.162521e-10
2.185364e-10
2.225923e-10
2.270666e-10
2.318499e-10
2.37657e-10
2.558475e-10
2.157244e-10
2.181424e-10
2.219659e-10
2.268653e-10
2.302997e-10
2.3711e-10
2.593597e-10
2.147443e-10
2.176137e-10
2.218246e-10
2.256208e-10
2.295764e-10
2.350644e-10
2.569496e-10
2.13793e-10
2.167696e-10
2.208736e-10
2.249836e-10
2.282571e-10
2.341304e-10
2.681383e-10
2.128082e-10
2.158187e-10
2.199814e-10
2.235798e-10
2.279049e-10
2.324546e-10
2.444591e-10
2.113253e-10
2.146018e-10
2.185351e-10
2.222616e-10
2.265749e-10
2.321458e-10
2.415507e-10
2.101694e-10
2.133658e-10
2.175273e-10
2.21092e-10
2.252571e-10
2.301878e-10
2.402526e-10
2.090867e-10
2.120468e-10
2.159063e-10
2.194929e-10
2.238442e-10
2.284382e-10
2.350819e-10
2.083034e-10
2.110781e-10
2.148063e-10
2.176725e-10
2.21589e-10
2.268733e-10
2.338898e-10
2.07626e-10
2.100934e-10
2.139103e-10
2.167007e-10
2.201411e-10
2.252255e-10
2.332175e-10
2.072801e-10
2.0954e-10
2.130862e-10
2.160772e-10
2.189186e-10
2.230332e-10
2.283997e-10
2.071724e-10
2.091621e-10
2.129234e-10
2.15625e-10
2.183405e-10
2.188726e-10
2.233033e-10
2.071976e-10
2.090254e-10
2.126703e-10
2.155105e-10
2.171965e-10
2.183244e-10
2.071013e-10
2.087939e-10
2.125682e-10
2.155973e-10
2.172586e-10
2.186592e-10
2.069531e-10
2.084779e-10
2.123946e-10
2.152251e-10
2.16871e-10
2.180217e-10
2.068985e-10
2.084514e-10
2.123833e-10
2.147921e-10
2.178004e-10
2.208386e-10
2.234396e-10
2.071207e-10
2.084899e-10
2.127341e-10
2.154918e-10
2.184876e-10
2.238852e-10
2.298439e-10
2.076794e-10
2.091629e-10
2.136323e-10
2.168428e-10
2.201494e-10
2.248722e-10
2.332147e-10
2.083295e-10
2.099054e-10
2.14222e-10
2.176363e-10
2.219065e-10
2.26457e-10
2.334024e-10
2.092861e-10
2.110092e-10
2.160939e-10
2.193018e-10
2.229894e-10
2.282962e-10
2.377586e-10
2.10402e-10
2.123148e-10
2.167219e-10
2.200409e-10
2.247995e-10
2.297684e-10
2.393734e-10
2.11771e-10
2.135222e-10
2.178024e-10
2.217592e-10
2.260264e-10
2.307593e-10
2.456044e-10
2.127484e-10
2.149525e-10
2.189613e-10
2.229835e-10
2.26814e-10
2.316682e-10
2.444609e-10
2.13711e-10
2.157481e-10
2.199023e-10
2.239336e-10
2.279094e-10
2.329011e-10
2.589494e-10
2.147121e-10
2.169076e-10
2.205359e-10
2.247524e-10
2.286194e-10
2.347129e-10
2.529307e-10
2.152126e-10
2.175546e-10
2.211284e-10
2.255323e-10
2.298917e-10
2.361493e-10
2.610443e-10
2.155064e-10
2.178388e-10
2.215827e-10
2.26021e-10
2.311233e-10
2.368163e-10
2.578673e-10
2.157988e-10
2.179311e-10
2.21665e-10
2.265612e-10
2.320929e-10
2.3825e-10
2.758791e-10
2.163579e-10
2.18062e-10
2.217855e-10
2.267892e-10
2.328112e-10
2.402696e-10
2.773296e-10
2.167887e-10
2.18648e-10
2.220197e-10
2.266127e-10
2.328331e-10
2.422221e-10
2.954109e-10
2.170276e-10
2.188099e-10
2.222214e-10
2.266412e-10
2.329935e-10
2.431498e-10
3.030249e-10
2.17133e-10
2.189327e-10
2.222871e-10
2.266672e-10
2.334429e-10
2.430101e-10
2.855314e-10
2.172036e-10
2.190272e-10
2.223686e-10
2.268506e-10
2.334553e-10
2.427204e-10
2.673538e-10
2.172566e-10
2.191128e-10
2.224516e-10
2.272019e-10
2.335692e-10
2.428797e-10
2.598639e-10
2.173048e-10
2.191882e-10
2.225876e-10
2.274562e-10
2.33662e-10
2.43031e-10
2.718359e-10
2.173476e-10
2.192588e-10
2.227889e-10
2.275353e-10
2.337555e-10
2.431799e-10
2.587576e-10
2.173857e-10
2.192982e-10
2.230228e-10
2.276005e-10
2.338445e-10
2.434e-10
7.437514e-10
2.174277e-10
2.19422e-10
2.230836e-10
2.276612e-10
2.339276e-10
2.436587e-10
9.138455e-10
2.17491e-10
2.195287e-10
2.231297e-10
2.27717e-10
2.34005e-10
2.438187e-10
9.581245e-10
2.175763e-10
2.196694e-10
2.231679e-10
2.277683e-10
2.340773e-10
2.444715e-10
3.055491e-10
2.176051e-10
2.196957e-10
2.232039e-10
2.278153e-10
2.341438e-10
2.445764e-10
2.694712e-10
2.176543e-10
2.205118e-10
2.24279e-10
2.278651e-10
2.342091e-10
2.446736e-10
2.732897e-10
2.177151e-10
2.205368e-10
2.243131e-10
2.279054e-10
2.342884e-10
2.452656e-10
2.797974e-10
2.177342e-10
2.205589e-10
2.243434e-10
2.279444e-10
2.343529e-10
2.455638e-10
2.875355e-10
2.177489e-10
2.205783e-10
2.243714e-10
2.27981e-10
2.344081e-10
2.456352e-10
2.955973e-10
2.177648e-10
2.205969e-10
2.243981e-10
2.280159e-10
2.344669e-10
2.457043e-10
3.051231e-10
2.177801e-10
2.206142e-10
2.24423e-10
2.280493e-10
2.347749e-10
2.457963e-10
3.17132e-10
2.177918e-10
2.206305e-10
2.244467e-10
2.280808e-10
2.349004e-10
2.458712e-10
3.294129e-10
2.178031e-10
2.206461e-10
2.244692e-10
2.281103e-10
2.349375e-10
2.459344e-10
3.461585e-10
2.178137e-10
2.206608e-10
2.244905e-10
2.281387e-10
2.349735e-10
2.459956e-10
3.643747e-10
2.178239e-10
2.206747e-10
2.24511e-10
2.281654e-10
2.350073e-10
2.460543e-10
3.868971e-10
2.178333e-10
2.20688e-10
2.245303e-10
2.281909e-10
2.350397e-10
2.461104e-10
4.138438e-10
2.178424e-10
2.207012e-10
2.245493e-10
2.282223e-10
2.352022e-10
2.461633e-10
4.41679e-10
2.178511e-10
2.207143e-10
2.245673e-10
2.282504e-10
2.353993e-10
2.462132e-10
4.711664e-10
2.178595e-10
2.207268e-10
2.245846e-10
2.28273e-10
2.354215e-10
2.462591e-10
4.996492e-10
2.178675e-10
2.207388e-10
2.246012e-10
2.282948e-10
2.354429e-10
2.463038e-10
5.421642e-10
2.178753e-10
2.207502e-10
2.246172e-10
2.283156e-10
2.35463e-10
2.463404e-10
5.556613e-10
2.178828e-10
2.207613e-10
2.246326e-10
2.283358e-10
2.354824e-10
2.464394e-10
5.584781e-10
2.178903e-10
2.207724e-10
2.246476e-10
2.283553e-10
2.355424e-10
2.466056e-10
5.614445e-10
2.178978e-10
2.207833e-10
2.246673e-10
2.284167e-10
2.356445e-10
2.467726e-10
5.641202e-10
2.179059e-10
2.207981e-10
2.247437e-10
2.285204e-10
2.357475e-10
2.4694e-10
5.666868e-10
2.179169e-10
2.208584e-10
2.248255e-10
2.286252e-10
2.358509e-10
2.471083e-10
5.692117e-10
2.179634e-10
2.209238e-10
2.249114e-10
2.287306e-10
2.359505e-10
2.472848e-10
5.717049e-10
2.180143e-10
2.2099e-10
2.249983e-10
2.28831e-10
2.35912e-10
2.474717e-10
5.7417e-10
2.180668e-10
2.210571e-10
2.250859e-10
2.289381e-10
2.360388e-10
2.476604e-10
5.765965e-10
2.181204e-10
2.21125e-10
2.251741e-10
2.290455e-10
2.361702e-10
2.478513e-10
5.789666e-10
2.181763e-10
2.211936e-10
2.252626e-10
2.291535e-10
2.363023e-10
2.480431e-10
5.812863e-10
2.182325e-10
2.212619e-10
2.253512e-10
2.292609e-10
2.364351e-10
2.482359e-10
5.83453e-10
2.182885e-10
2.213311e-10
2.2544e-10
2.293684e-10
2.365682e-10
2.484318e-10
6.092098e-10
3.35973e-07
4.181564e-07
4.186251e-07
4.186254e-07
4.186254e-07
4.186254e-07
4.186254e-07
4.186254e-07
4.186254e-07
4.186254e-07
4.186254e-07
4.186254e-07
4.186254e-07
4.186254e-07
4.186254e-07
4.186254e-07
4.186254e-07
4.186254e-07
3.508349e-07
4.18424e-07
4.186259e-07
4.18626e-07
4.18626e-07
4.18626e-07
4.18626e-07
4.18626e-07
4.18626e-07
4.18626e-07
4.18626e-07
4.18626e-07
4.18626e-07
4.18626e-07
4.18626e-07
4.18626e-07
4.18626e-07
4.18626e-07
3.478965e-07
4.183853e-07
4.186259e-07
4.18626e-07
4.18626e-07
4.18626e-07
4.18626e-07
4.18626e-07
4.18626e-07
4.18626e-07
4.18626e-07
4.18626e-07
4.18626e-07
4.18626e-07
4.18626e-07
4.18626e-07
4.18626e-07
4.18626e-07
3.449584e-07
4.183771e-07
4.186259e-07
4.18626e-07
4.18626e-07
4.18626e-07
4.18626e-07
4.18626e-07
4.18626e-07
4.18626e-07
4.18626e-07
4.18626e-07
4.18626e-07
4.18626e-07
4.18626e-07
4.18626e-07
4.18626e-07
4.18626e-07
3.41499e-07
4.183698e-07
4.186259e-07
4.18626e-07
4.18626e-07
4.18626e-07
4.18626e-07
4.18626e-07
4.18626e-07
4.18626e-07
4.18626e-07
4.18626e-07
4.18626e-07
4.18626e-07
4.18626e-07
4.18626e-07
4.18626e-07
4.18626e-07
3.37521e-07
4.183603e-07
4.186259e-07
4.18626e-07
4.18626e-07
4.18626e-07
4.18626e-07
4.18626e-07
4.18626e-07
4.18626e-07
4.18626e-07
4.18626e-07
4.18626e-07
4.18626e-07
4.18626e-07
4.18626e-07
4.18626e-07
4.18626e-07
3.33086e-07
4.183497e-07
4.186259e-07
4.18626e-07
4.18626e-07
4.18626e-07
4.18626e-07
4.18626e-07
4.18626e-07
4.18626e-07
4.18626e-07
4.18626e-07
4.18626e-07
4.18626e-07
4.18626e-07
4.18626e-07
4.18626e-07
4.18626e-07
3.28252e-07
4.183384e-07
4.186259e-07
4.18626e-07
4.18626e-07
4.18626e-07
4.18626e-07
4.18626e-07
4.18626e-07
4.18626e-07
4.18626e-07
4.18626e-07
4.18626e-07
4.18626e-07
4.18626e-07
4.18626e-07
4.18626e-07
4.18626e-07
3.230677e-07
4.183263e-07
4.186259e-07
4.18626e-07
4.18626e-07
4.18626e-07
4.18626e-07
4.18626e-07
4.18626e-07
4.18626e-07
4.18626e-07
4.18626e-07
4.18626e-07
4.18626e-07
4.18626e-07
4.18626e-07
4.18626e-07
4.18626e-07
3.175804e-07
4.183138e-07
4.186259e-07
4.18626e-07
4.18626e-07
4.18626e-07
4.18626e-07
4.18626e-07
4.18626e-07
4.18626e-07
4.18626e-07
4.18626e-07
4.18626e-07
4.18626e-07
4.18626e-07
4.18626e-07
4.18626e-07
4.18626e-07
3.118268e-07
4.183004e-07
4.186259e-07
4.18626e-07
4.18626e-07
4.18626e-07
4.18626e-07
4.18626e-07
4.18626e-07
4.18626e-07
4.18626e-07
4.18626e-07
4.18626e-07
4.18626e-07
4.18626e-07
4.18626e-07
4.18626e-07
4.18626e-07
3.05835e-07
4.182847e-07
4.186258e-07
4.18626e-07
4.18626e-07
4.18626e-07
4.18626e-07
4.18626e-07
4.18626e-07
4.18626e-07
4.18626e-07
4.18626e-07
4.18626e-07
4.18626e-07
4.18626e-07
4.18626e-07
4.18626e-07
4.18626e-07
2.996321e-07
4.182624e-07
4.186258e-07
4.18626e-07
4.18626e-07
4.18626e-07
4.18626e-07
4.18626e-07
4.18626e-07
4.18626e-07
4.18626e-07
4.18626e-07
4.18626e-07
4.18626e-07
4.18626e-07
4.18626e-07
4.18626e-07
4.18626e-07
2.923115e-07
4.182239e-07
4.186258e-07
4.18626e-07
4.18626e-07
4.18626e-07
4.18626e-07
4.18626e-07
4.18626e-07
4.18626e-07
4.18626e-07
4.18626e-07
4.18626e-07
4.18626e-07
4.18626e-07
4.18626e-07
4.18626e-07
4.18626e-07
2.471501e-07
4.18046e-07
4.186257e-07
4.18626e-07
4.18626e-07
4.18626e-07
4.18626e-07
4.18626e-07
4.18626e-07
4.18626e-07
4.18626e-07
4.18626e-07
4.18626e-07
4.18626e-07
4.18626e-07
4.18626e-07
4.18626e-07
4.18626e-07
2.303334e-07
4.178248e-07
4.186262e-07
4.18626e-07
4.18626e-07
4.18626e-07
4.18626e-07
4.18626e-07
4.18626e-07
4.18626e-07
4.18626e-07
4.18626e-07
4.18626e-07
4.18626e-07
4.18626e-07
4.18626e-07
4.18626e-07
4.18626e-07
2.164434e-07
4.179222e-07
4.186238e-07
4.186263e-07
4.18626e-07
4.18626e-07
4.18626e-07
4.18626e-07
4.18626e-07
4.18626e-07
4.18626e-07
4.18626e-07
4.18626e-07
4.18626e-07
4.18626e-07
4.18626e-07
4.18626e-07
4.18626e-07
2.030434e-07
4.178729e-07
4.186247e-07
4.186253e-07
4.186262e-07
4.18626e-07
4.18626e-07
4.18626e-07
4.18626e-07
4.18626e-07
4.18626e-07
4.18626e-07
4.18626e-07
4.18626e-07
4.18626e-07
4.18626e-07
4.18626e-07
4.18626e-07
1.902048e-07
4.178092e-07
4.186254e-07
4.186256e-07
4.186256e-07
4.18626e-07
4.18626e-07
4.18626e-07
4.18626e-07
4.18626e-07
4.18626e-07
4.18626e-07
4.18626e-07
4.18626e-07
4.18626e-07
4.18626e-07
4.18626e-07
4.18626e-07
1.782995e-07
4.177381e-07
4.186254e-07
4.18626e-07
4.186259e-07
4.186259e-07
4.18626e-07
4.18626e-07
4.18626e-07
4.18626e-07
4.18626e-07
4.18626e-07
4.18626e-07
4.18626e-07
4.18626e-07
4.18626e-07
4.18626e-07
4.18626e-07
1.671391e-07
4.176563e-07
4.186254e-07
4.18626e-07
4.18626e-07
4.18626e-07
4.18626e-07
4.18626e-07
4.18626e-07
4.18626e-07
4.18626e-07
4.18626e-07
4.18626e-07
4.18626e-07
4.18626e-07
4.18626e-07
4.18626e-07
4.18626e-07
1.571741e-07
4.175673e-07
4.186253e-07
4.18626e-07
4.18626e-07
4.18626e-07
4.18626e-07
4.18626e-07
4.18626e-07
4.18626e-07
4.18626e-07
4.18626e-07
4.18626e-07
4.18626e-07
4.18626e-07
4.18626e-07
4.18626e-07
4.18626e-07
1.481028e-07
4.174937e-07
4.186253e-07
4.18626e-07
4.18626e-07
4.18626e-07
4.18626e-07
4.18626e-07
4.18626e-07
4.18626e-07
4.18626e-07
4.18626e-07
4.18626e-07
4.18626e-07
4.18626e-07
4.18626e-07
4.18626e-07
4.18626e-07
1.392874e-07
4.174083e-07
4.186252e-07
4.18626e-07
4.18626e-07
4.18626e-07
4.18626e-07
4.18626e-07
4.18626e-07
4.18626e-07
4.18626e-07
4.18626e-07
4.18626e-07
4.18626e-07
4.18626e-07
4.18626e-07
4.18626e-07
4.18626e-07
1.304298e-07
4.173055e-07
4.186251e-07
4.18626e-07
4.18626e-07
4.18626e-07
4.18626e-07
4.18626e-07
4.18626e-07
4.18626e-07
4.18626e-07
4.18626e-07
4.18626e-07
4.18626e-07
4.18626e-07
4.18626e-07
4.18626e-07
4.18626e-07
1.221127e-07
4.172133e-07
4.186251e-07
4.18626e-07
4.18626e-07
4.18626e-07
4.18626e-07
4.18626e-07
4.18626e-07
4.18626e-07
4.18626e-07
4.18626e-07
4.18626e-07
4.18626e-07
4.18626e-07
4.18626e-07
4.18626e-07
4.18626e-07
1.140834e-07
4.171291e-07
4.18625e-07
4.18626e-07
4.18626e-07
4.18626e-07
4.18626e-07
4.18626e-07
4.18626e-07
4.18626e-07
4.18626e-07
4.18626e-07
4.18626e-07
4.18626e-07
4.18626e-07
4.18626e-07
4.18626e-07
4.18626e-07
1.061086e-07
4.170332e-07
4.186249e-07
4.18626e-07
4.18626e-07
4.18626e-07
4.18626e-07
4.18626e-07
4.18626e-07
4.18626e-07
4.18626e-07
4.18626e-07
4.18626e-07
4.18626e-07
4.18626e-07
4.18626e-07
4.18626e-07
4.18626e-07
9.867446e-08
4.169228e-07
4.186248e-07
4.18626e-07
4.18626e-07
4.18626e-07
4.18626e-07
4.18626e-07
4.18626e-07
4.18626e-07
4.18626e-07
4.18626e-07
4.18626e-07
4.18626e-07
4.18626e-07
4.18626e-07
4.18626e-07
4.18626e-07
9.145171e-08
4.168447e-07
4.186247e-07
4.186242e-07
4.186243e-07
4.18626e-07
4.18626e-07
4.18626e-07
4.18626e-07
4.18626e-07
4.18626e-07
4.18626e-07
4.18626e-07
4.18626e-07
4.18626e-07
4.18626e-07
4.18626e-07
4.18626e-07
8.586035e-08
4.167912e-07
4.186246e-07
4.185985e-07
4.186001e-07
4.186257e-07
4.18626e-07
4.186261e-07
4.18626e-07
4.18626e-07
4.18626e-07
4.18626e-07
4.18626e-07
4.18626e-07
4.18626e-07
4.18626e-07
4.18626e-07
4.18626e-07
7.91255e-08
4.168281e-07
4.186246e-07
4.185596e-07
4.185883e-07
4.186247e-07
4.18626e-07
4.186247e-07
4.186247e-07
4.18626e-07
4.18626e-07
4.18626e-07
4.18626e-07
4.18626e-07
4.18626e-07
4.18626e-07
4.18626e-07
4.18626e-07
7.213609e-08
4.170095e-07
4.186266e-07
4.186295e-07
4.186416e-07
4.186259e-07
4.18626e-07
4.186258e-07
4.186258e-07
4.18626e-07
4.18626e-07
4.18626e-07
4.18626e-07
4.18626e-07
4.18626e-07
4.18626e-07
4.18626e-07
4.18626e-07
6.500102e-08
4.180228e-07
4.186229e-07
4.185593e-07
4.185465e-07
4.186194e-07
4.186259e-07
4.18626e-07
4.18626e-07
4.18626e-07
4.18626e-07
4.18626e-07
4.18626e-07
4.18626e-07
4.18626e-07
4.18626e-07
4.18626e-07
4.18626e-07
4.891417e-08
4.159374e-07
4.186053e-07
4.183168e-07
4.183843e-07
4.184141e-07
4.186255e-07
4.18626e-07
4.186252e-07
4.186258e-07
4.18626e-07
4.18626e-07
4.18626e-07
4.18626e-07
4.18626e-07
4.18626e-07
4.18626e-07
4.18626e-07
4.192036e-08
4.163322e-07
4.185956e-07
4.18613e-07
4.18516e-07
4.185889e-07
4.186255e-07
4.186217e-07
4.186201e-07
4.186257e-07
4.18626e-07
4.18626e-07
4.18626e-07
4.18626e-07
4.18626e-07
4.18626e-07
4.18626e-07
4.18626e-07
3.406594e-08
4.165779e-07
4.185723e-07
4.18627e-07
4.18626e-07
4.186387e-07
4.186305e-07
4.186237e-07
4.186238e-07
4.186247e-07
4.186242e-07
4.186255e-07
4.186259e-07
4.186261e-07
4.18626e-07
4.18626e-07
4.186259e-07
4.18626e-07
7.489023e-08
4.140437e-07
4.184157e-07
4.186091e-07
4.187627e-07
4.187571e-07
4.186649e-07
4.185748e-07
4.185589e-07
4.186064e-07
4.185926e-07
4.18597e-07
4.186236e-07
4.186239e-07
4.18626e-07
4.18626e-07
4.18626e-07
4.18626e-07
8.735805e-08
4.116915e-07
4.183699e-07
4.188849e-07
4.189289e-07
4.188572e-07
4.186733e-07
4.184921e-07
4.184288e-07
4.185177e-07
4.184489e-07
4.184187e-07
4.184943e-07
4.18544e-07
4.185998e-07
4.186235e-07
4.186261e-07
4.18626e-07
4.751333e-08
4.098495e-07
4.178949e-07
4.190378e-07
4.190739e-07
4.18944e-07
4.186787e-07
4.186312e-07
4.182956e-07
4.184032e-07
4.182659e-07
4.181025e-07
4.182532e-07
4.182712e-07
4.183212e-07
4.185231e-07
4.186141e-07
4.186255e-07
3.372394e-08
3.549487e-07
4.179023e-07
4.193351e-07