/*--------------------------------*- C++ -*----------------------------------*\
| =========                 |                                                 |
| \\      /  F ield         | OpenFOAM: The Open Source CFD Toolbox           |
|  \\    /   O peration     | Version:  2206                                  |
|   \\  /    A nd           | Website:  www.openfoam.com                      |
|    \\/     M anipulation  |                                                 |
\*---------------------------------------------------------------------------*/
FoamFile
{
    version     2.0;
    format      ascii;
    arch        "LSB;label=32;scalar=64";
    class       volScalarField;
    location    "1.4";
    object      k.b_0;
}
// * * * * * * * * * * * * * * * * * * * * * * * * * * * * * * * * * * * * * //

dimensions      [0 2 -2 0 0 0 0];

internalField   nonuniform List<scalar> 
13078
(
2.163495e-13
1.903756e-10
2.113246e-10
2.12658e-10
2.141741e-10
2.159265e-10
2.17964e-10
1.549853e-13
1.738859e-10
2.106251e-10
2.125648e-10
2.14121e-10
2.158842e-10
2.179199e-10
1.760417e-13
1.733844e-10
2.104825e-10
2.124657e-10
2.140532e-10
2.158308e-10
2.178693e-10
1.652429e-13
1.736617e-10
2.104303e-10
2.123912e-10
2.139903e-10
2.157765e-10
2.178166e-10
1.584968e-13
1.737586e-10
2.10402e-10
2.12359e-10
2.139384e-10
2.15725e-10
2.17765e-10
1.5534e-13
1.738121e-10
2.103911e-10
2.123402e-10
2.139193e-10
2.156804e-10
2.177153e-10
1.536095e-13
1.738161e-10
2.103779e-10
2.123235e-10
2.139063e-10
2.156665e-10
2.176709e-10
1.526819e-13
1.7379e-10
2.103644e-10
2.123133e-10
2.138982e-10
2.156574e-10
2.176591e-10
1.522981e-13
1.737635e-10
2.103655e-10
2.123104e-10
2.138934e-10
2.156504e-10
2.176508e-10
1.523506e-13
1.7372e-10
2.103664e-10
2.123087e-10
2.138898e-10
2.15645e-10
2.176438e-10
1.527849e-13
1.736653e-10
2.103665e-10
2.123074e-10
2.138868e-10
2.156403e-10
2.176374e-10
1.535826e-13
1.736015e-10
2.103658e-10
2.123063e-10
2.138841e-10
2.15636e-10
2.176316e-10
1.547445e-13
1.735309e-10
2.103645e-10
2.123048e-10
2.138817e-10
2.15632e-10
2.176259e-10
1.562971e-13
1.734538e-10
2.103626e-10
2.123027e-10
2.138783e-10
2.156278e-10
2.1762e-10
1.582851e-13
1.733713e-10
2.103595e-10
2.122926e-10
2.13863e-10
2.156222e-10
2.176141e-10
1.607725e-13
1.732835e-10
2.103555e-10
2.122796e-10
2.138506e-10
2.15617e-10
2.176079e-10
1.638436e-13
1.731915e-10
2.103524e-10
2.12276e-10
2.138462e-10
2.156121e-10
2.176015e-10
1.676158e-13
1.730949e-10
2.103491e-10
2.122728e-10
2.13842e-10
2.156071e-10
2.175949e-10
1.722274e-13
1.729933e-10
2.103453e-10
2.122695e-10
2.138371e-10
2.156005e-10
2.175878e-10
1.778718e-13
1.728874e-10
2.103411e-10
2.12265e-10
2.138197e-10
2.155754e-10
2.175787e-10
1.84775e-13
1.727768e-10
2.103368e-10
2.1226e-10
2.137983e-10
2.155548e-10
2.175694e-10
1.932378e-13
1.726618e-10
2.103324e-10
2.122558e-10
2.13791e-10
2.155467e-10
2.175611e-10
2.036117e-13
1.725418e-10
2.103276e-10
2.122511e-10
2.137846e-10
2.155375e-10
2.175503e-10
2.163409e-13
1.724171e-10
2.103226e-10
2.122461e-10
2.137763e-10
2.155107e-10
2.175116e-10
2.319539e-13
1.722874e-10
2.103176e-10
2.122407e-10
2.137673e-10
2.154782e-10
2.174798e-10
2.510949e-13
1.721525e-10
2.103121e-10
2.122348e-10
2.137589e-10
2.154651e-10
2.174653e-10
2.745577e-13
1.720153e-10
2.103064e-10
2.122284e-10
2.137499e-10
2.154529e-10
2.174493e-10
3.029044e-13
1.71854e-10
2.102999e-10
2.122215e-10
2.137399e-10
2.154384e-10
2.174068e-10
3.36903e-13
1.717217e-10
2.102941e-10
2.12214e-10
2.137288e-10
2.15422e-10
2.173561e-10
3.734337e-13
1.71268e-10
2.102786e-10
2.122056e-10
2.137169e-10
2.154062e-10
2.173325e-10
4.124111e-13
1.708173e-10
2.102756e-10
2.121966e-10
2.137038e-10
2.153888e-10
2.173083e-10
4.673626e-13
1.700253e-10
2.102635e-10
2.121851e-10
2.136896e-10
2.153695e-10
2.17281e-10
5.33548e-13
1.690149e-10
2.102038e-10
2.12155e-10
2.13672e-10
2.153479e-10
2.172538e-10
6.126475e-13
1.686972e-10
2.101604e-10
2.121291e-10
2.136521e-10
2.153241e-10
2.17224e-10
7.053605e-13
1.68368e-10
2.101421e-10
2.120971e-10
2.13598e-10
2.152938e-10
2.171911e-10
8.140411e-13
1.679956e-10
2.101189e-10
2.120624e-10
2.135357e-10
2.152175e-10
2.171509e-10
9.425528e-13
1.67586e-10
2.100929e-10
2.120324e-10
2.134834e-10
2.151479e-10
2.171031e-10
1.091497e-12
1.671445e-10
2.100609e-10
2.12001e-10
2.134406e-10
2.15068e-10
2.16982e-10
1.258809e-12
1.666831e-10
2.100208e-10
2.119599e-10
2.133832e-10
2.149774e-10
2.168453e-10
1.419993e-12
1.657448e-10
2.099524e-10
2.118835e-10
2.132682e-10
2.148223e-10
2.166275e-10
1.568351e-12
1.640886e-10
2.098088e-10
2.117088e-10
2.130244e-10
2.145361e-10
2.163438e-10
1.785496e-12
1.623207e-10
2.094729e-10
2.112999e-10
2.126157e-10
2.141308e-10
2.159282e-10
2.024988e-12
1.613054e-10
2.089744e-10
2.107663e-10
2.12062e-10
2.136946e-10
2.155534e-10
2.273997e-12
1.600918e-10
2.084105e-10
2.103238e-10
2.116135e-10
2.131775e-10
2.153368e-10
2.486706e-12
1.583049e-10
2.079416e-10
2.099331e-10
2.112612e-10
2.128676e-10
2.148925e-10
2.624079e-12
1.558924e-10
2.075139e-10
2.094188e-10
2.107977e-10
2.123688e-10
2.142601e-10
2.759006e-12
1.534072e-10
2.070289e-10
2.089261e-10
2.100243e-10
2.115239e-10
2.132438e-10
2.798578e-12
1.519189e-10
2.064079e-10
2.083206e-10
2.0922e-10
2.104952e-10
2.120044e-10
2.69722e-12
1.506185e-10
2.057584e-10
2.075574e-10
2.084462e-10
2.096392e-10
2.109861e-10
2.46095e-12
1.495595e-10
2.051581e-10
2.068917e-10
2.076857e-10
2.086464e-10
2.099521e-10
2.112097e-12
1.476345e-10
2.045977e-10
2.063719e-10
2.070792e-10
2.078646e-10
2.088725e-10
1.618356e-12
1.447251e-10
2.039687e-10
2.058101e-10
2.065126e-10
2.07303e-10
2.081898e-10
1.161588e-12
1.432986e-10
2.033529e-10
2.054378e-10
2.062039e-10
2.071234e-10
2.077159e-10
8.446831e-13
1.42375e-10
2.028866e-10
2.05049e-10
2.059287e-10
2.068307e-10
2.074981e-10
6.851275e-13
1.416941e-10
2.025954e-10
2.048076e-10
2.057732e-10
2.066826e-10
2.074998e-10
6.398019e-13
1.412655e-10
2.024214e-10
2.046792e-10
2.056863e-10
2.06629e-10
2.075153e-10
7.758937e-13
1.411688e-10
2.023569e-10
2.046053e-10
2.056003e-10
2.065355e-10
2.074223e-10
1.063165e-12
1.41462e-10
2.024841e-10
2.046779e-10
2.056179e-10
2.065039e-10
2.073041e-10
1.425773e-12
1.42013e-10
2.027376e-10
2.048736e-10
2.057153e-10
2.065755e-10
2.072017e-10
1.879383e-12
1.427629e-10
2.031212e-10
2.051659e-10
2.058733e-10
2.067258e-10
2.072746e-10
2.331167e-12
1.440482e-10
2.036495e-10
2.054364e-10
2.060987e-10
2.068531e-10
2.076868e-10
2.687601e-12
1.469114e-10
2.043046e-10
2.060593e-10
2.066843e-10
2.073749e-10
2.082749e-10
2.844902e-12
1.488274e-10
2.048435e-10
2.06512e-10
2.072056e-10
2.080468e-10
2.09218e-10
2.889153e-12
1.499013e-10
2.054239e-10
2.071341e-10
2.079046e-10
2.089642e-10
2.102152e-10
2.821339e-12
1.512802e-10
2.060906e-10
2.07887e-10
2.086721e-10
2.098637e-10
2.112261e-10
2.653897e-12
1.528894e-10
2.067724e-10
2.0855e-10
2.095034e-10
2.108448e-10
2.124018e-10
2.437076e-12
1.554961e-10
2.073377e-10
2.091115e-10
2.10307e-10
2.116962e-10
2.133844e-10
2.272891e-12
1.579955e-10
2.078116e-10
2.097139e-10
2.108599e-10
2.122759e-10
2.140864e-10
2.080853e-12
1.598625e-10
2.083056e-10
2.101796e-10
2.113677e-10
2.12718e-10
2.14675e-10
1.877861e-12
1.611429e-10
2.088913e-10
2.106679e-10
2.119086e-10
2.13389e-10
2.15049e-10
1.684754e-12
1.622036e-10
2.094098e-10
2.112236e-10
2.124978e-10
2.139683e-10
2.156377e-10
1.507636e-12
1.637399e-10
2.097482e-10
2.116495e-10
2.129472e-10
2.144494e-10
2.162381e-10
1.37056e-12
1.651385e-10
2.099035e-10
2.118438e-10
2.132242e-10
2.147828e-10
2.165808e-10
1.219157e-12
1.660317e-10
2.099781e-10
2.119324e-10
2.133632e-10
2.149521e-10
2.168165e-10
1.062685e-12
1.665731e-10
2.100308e-10
2.119817e-10
2.134272e-10
2.150496e-10
2.169613e-10
9.198805e-13
1.672711e-10
2.10078e-10
2.12023e-10
2.134811e-10
2.151436e-10
2.170898e-10
7.94251e-13
1.678543e-10
2.1011e-10
2.120539e-10
2.13535e-10
2.152304e-10
2.171409e-10
6.899861e-13
1.683162e-10
2.101337e-10
2.120901e-10
2.135925e-10
2.152865e-10
2.171819e-10
5.973554e-13
1.687309e-10
2.101557e-10
2.121237e-10
2.136463e-10
2.153176e-10
2.172172e-10
5.171302e-13
1.690469e-10
2.101999e-10
2.121508e-10
2.136673e-10
2.15343e-10
2.172489e-10
4.500219e-13
1.700628e-10
2.102608e-10
2.121818e-10
2.13686e-10
2.153656e-10
2.172775e-10
3.949111e-13
1.70854e-10
2.102737e-10
2.121939e-10
2.13701e-10
2.153859e-10
2.173056e-10
3.566805e-13
1.71301e-10
2.10277e-10
2.122035e-10
2.137147e-10
2.154041e-10
2.173304e-10
3.214474e-13
1.717553e-10
2.10293e-10
2.122124e-10
2.137272e-10
2.154203e-10
2.173545e-10
2.893183e-13
1.718855e-10
2.10299e-10
2.122201e-10
2.137385e-10
2.154371e-10
2.174054e-10
2.630442e-13
1.720445e-10
2.103057e-10
2.122273e-10
2.137487e-10
2.154517e-10
2.174484e-10
2.414778e-13
1.721794e-10
2.103115e-10
2.122339e-10
2.137579e-10
2.154642e-10
2.174646e-10
2.239924e-13
1.723119e-10
2.103172e-10
2.1224e-10
2.137665e-10
2.154776e-10
2.174793e-10
2.098731e-13
1.724394e-10
2.103224e-10
2.122454e-10
2.137757e-10
2.155102e-10
2.175112e-10
1.985491e-13
1.72562e-10
2.103274e-10
2.122506e-10
2.13784e-10
2.15537e-10
2.1755e-10
1.894123e-13
1.726801e-10
2.103323e-10
2.122554e-10
2.137906e-10
2.155463e-10
2.175607e-10
1.820029e-13
1.727935e-10
2.103366e-10
2.122597e-10
2.137982e-10
2.155546e-10
2.175692e-10
1.760107e-13
1.729028e-10
2.103411e-10
2.122649e-10
2.138195e-10
2.155753e-10
2.175788e-10
1.712194e-13
1.730075e-10
2.103454e-10
2.122695e-10
2.13837e-10
2.156006e-10
2.17588e-10
1.673987e-13
1.731083e-10
2.103493e-10
2.122728e-10
2.13842e-10
2.156071e-10
2.175949e-10
1.64324e-13
1.732044e-10
2.103528e-10
2.122761e-10
2.138463e-10
2.156121e-10
2.176015e-10
1.618995e-13
1.732964e-10
2.10356e-10
2.122798e-10
2.138507e-10
2.15617e-10
2.17608e-10
1.600058e-13
1.733845e-10
2.103603e-10
2.122929e-10
2.138632e-10
2.156223e-10
2.176142e-10
1.585258e-13
1.734678e-10
2.103638e-10
2.123032e-10
2.138786e-10
2.156279e-10
2.1762e-10
1.573935e-13
1.735464e-10
2.10366e-10
2.123055e-10
2.13882e-10
2.156321e-10
2.176257e-10
1.565676e-13
1.736192e-10
2.103677e-10
2.12307e-10
2.138844e-10
2.156359e-10
2.176311e-10
1.560225e-13
1.736864e-10
2.103689e-10
2.123083e-10
2.138868e-10
2.156398e-10
2.176365e-10
1.557532e-13
1.737468e-10
2.103694e-10
2.123094e-10
2.138894e-10
2.156438e-10
2.176423e-10
1.557668e-13
1.737984e-10
2.103692e-10
2.123106e-10
2.138921e-10
2.156482e-10
2.176483e-10
1.560947e-13
1.738371e-10
2.103683e-10
2.123124e-10
2.138954e-10
2.156536e-10
2.176552e-10
1.567967e-13
1.738807e-10
2.103807e-10
2.1232e-10
2.139007e-10
2.156604e-10
2.176653e-10
1.580201e-13
1.739011e-10
2.103905e-10
2.123317e-10
2.139091e-10
2.15671e-10
2.177074e-10
1.600185e-13
1.738785e-10
2.103924e-10
2.123414e-10
2.139218e-10
2.157113e-10
2.177546e-10
1.634586e-13
1.738254e-10
2.104028e-10
2.123596e-10
2.139648e-10
2.157581e-10
2.178041e-10
1.705846e-13
1.736883e-10
2.104292e-10
2.124141e-10
2.140184e-10
2.15809e-10
2.178558e-10
1.81605e-13
1.736672e-10
2.10528e-10
2.124896e-10
2.140808e-10
2.158633e-10
2.179087e-10
1.599203e-13
1.757445e-10
2.106466e-10
2.12594e-10
2.141543e-10
2.159202e-10
2.179616e-10
2.203832e-10
2.234538e-10
2.276012e-10
2.316212e-10
2.389003e-10
2.5103e-10
1.655961e-09
2.203318e-10
2.233866e-10
2.275116e-10
2.315134e-10
2.38765e-10
2.507034e-10
5.856728e-10
2.202769e-10
2.233189e-10
2.274257e-10
2.329106e-10
2.386428e-10
2.505083e-10
5.842759e-10
2.202209e-10
2.232506e-10
2.273345e-10
2.312969e-10
2.384987e-10
2.503137e-10
5.821008e-10
2.20166e-10
2.231821e-10
2.272472e-10
2.311826e-10
2.383645e-10
2.5012e-10
5.798552e-10
2.201118e-10
2.231137e-10
2.271583e-10
2.310734e-10
2.38232e-10
2.499277e-10
5.774953e-10
2.200589e-10
2.23046e-10
2.2707e-10
2.309679e-10
2.381953e-10
2.497382e-10
5.750637e-10
2.200107e-10
2.229791e-10
2.269825e-10
2.308645e-10
2.381612e-10
2.495509e-10
5.725855e-10
2.199985e-10
2.229173e-10
2.268993e-10
2.30759e-10
2.380559e-10
2.493803e-10
5.700695e-10
2.199895e-10
2.229017e-10
2.268216e-10
2.30654e-10
2.379515e-10
2.492108e-10
5.675212e-10
2.199814e-10
2.228903e-10
2.268014e-10
2.305522e-10
2.378476e-10
2.490422e-10
5.649198e-10
2.199733e-10
2.228787e-10
2.267859e-10
2.305301e-10
2.377433e-10
2.488737e-10
5.62217e-10
2.199654e-10
2.228671e-10
2.2677e-10
2.305105e-10
2.377254e-10
2.487024e-10
5.592363e-10
2.199573e-10
2.228554e-10
2.267536e-10
2.304901e-10
2.377056e-10
2.486728e-10
5.539407e-10
2.199492e-10
2.228431e-10
2.267367e-10
2.30469e-10
2.376847e-10
2.486292e-10
5.319576e-10
2.199406e-10
2.228304e-10
2.267191e-10
2.30447e-10
2.376625e-10
2.485863e-10
5.041255e-10
2.199318e-10
2.228171e-10
2.267011e-10
2.304237e-10
2.376303e-10
2.485394e-10
4.702308e-10
2.199227e-10
2.228038e-10
2.266819e-10
2.303885e-10
2.373129e-10
2.48488e-10
4.391764e-10
2.199131e-10
2.227905e-10
2.266623e-10
2.303632e-10
2.372721e-10
2.48435e-10
4.143926e-10
2.19903e-10
2.227765e-10
2.266417e-10
2.303369e-10
2.372385e-10
2.483779e-10
3.881477e-10
2.198925e-10
2.227618e-10
2.266204e-10
2.303095e-10
2.372034e-10
2.483164e-10
3.614135e-10
2.198812e-10
2.227463e-10
2.265982e-10
2.302805e-10
2.37167e-10
2.482537e-10
3.437773e-10
2.198693e-10
2.227298e-10
2.265732e-10
2.302512e-10
2.371225e-10
2.481882e-10
3.284849e-10
2.19854e-10
2.227123e-10
2.265515e-10
2.316132e-10
2.368369e-10
2.480936e-10
3.156847e-10
2.198382e-10
2.226938e-10
2.265206e-10
2.301962e-10
2.366782e-10
2.480182e-10
3.052074e-10
2.198235e-10
2.226745e-10
2.264943e-10
2.301492e-10
2.366244e-10
2.479474e-10
2.955503e-10
2.198045e-10
2.226525e-10
2.26464e-10
2.301111e-10
2.365678e-10
2.478648e-10
2.872334e-10
2.197434e-10
2.226274e-10
2.2643e-10
2.300705e-10
2.364902e-10
2.472117e-10
2.791055e-10
2.19694e-10
2.218332e-10
2.253654e-10
2.300212e-10
2.364198e-10
2.46963e-10
2.738076e-10
2.196656e-10
2.218007e-10
2.253274e-10
2.299771e-10
2.363551e-10
2.468705e-10
2.703673e-10
2.195805e-10
2.216973e-10
2.252914e-10
2.299284e-10
2.362864e-10
2.465016e-10
9.736403e-10
2.195173e-10
2.216131e-10
2.252524e-10
2.298756e-10
2.36212e-10
2.460516e-10
9.031835e-10
2.194762e-10
2.21451e-10
2.252012e-10
2.298182e-10
2.361327e-10
2.458826e-10
7.492934e-10
2.194393e-10
2.213955e-10
2.250397e-10
2.297567e-10
2.360479e-10
2.456881e-10
5.837793e-10
2.193984e-10
2.213359e-10
2.248403e-10
2.296869e-10
2.359572e-10
2.454446e-10
2.672398e-10
2.193523e-10
2.212727e-10
2.246396e-10
2.295886e-10
2.358642e-10
2.452738e-10
2.633648e-10
2.193022e-10
2.211998e-10
2.245627e-10
2.292521e-10
2.357614e-10
2.451412e-10
2.594007e-10
2.192366e-10
2.211138e-10
2.244778e-10
2.289641e-10
2.356314e-10
2.451176e-10
2.688477e-10
2.19142e-10
2.210086e-10
2.244061e-10
2.288091e-10
2.35516e-10
2.454983e-10
2.804198e-10
2.189422e-10
2.208425e-10
2.24389e-10
2.289854e-10
2.354351e-10
2.45487e-10
3.140711e-10
2.186307e-10
2.206668e-10
2.245049e-10
2.294618e-10
2.357212e-10
2.442773e-10
2.903219e-10
2.183301e-10
2.205451e-10
2.245262e-10
2.297843e-10
2.356811e-10
2.421729e-10
2.791251e-10
2.182764e-10
2.206041e-10
2.245683e-10
2.294198e-10
2.348611e-10
2.403447e-10
2.863717e-10
2.182868e-10
2.205911e-10
2.246927e-10
2.292129e-10
2.340448e-10
2.399059e-10
2.584713e-10
2.177493e-10
2.201897e-10
2.240557e-10
2.290099e-10
2.324708e-10
2.393498e-10
2.622736e-10
2.167584e-10
2.196542e-10
2.239136e-10
2.277437e-10
2.317408e-10
2.372841e-10
2.597519e-10
2.157939e-10
2.187979e-10
2.229478e-10
2.271015e-10
2.304032e-10
2.363448e-10
2.721019e-10
2.147979e-10
2.178378e-10
2.220464e-10
2.256784e-10
2.300465e-10
2.346482e-10
2.470281e-10
2.132952e-10
2.166102e-10
2.205825e-10
2.243429e-10
2.28697e-10
2.343306e-10
2.438479e-10
2.121273e-10
2.153578e-10
2.195639e-10
2.231595e-10
2.273675e-10
2.323519e-10
2.425307e-10
2.110322e-10
2.140289e-10
2.179296e-10
2.215507e-10
2.259466e-10
2.30594e-10
2.372845e-10
2.102389e-10
2.130493e-10
2.168183e-10
2.197125e-10
2.236722e-10
2.290191e-10
2.361335e-10
2.095524e-10
2.120522e-10
2.159117e-10
2.187271e-10
2.222143e-10
2.273588e-10
2.354211e-10
2.09199e-10
2.114917e-10
2.150759e-10
2.18102e-10
2.209722e-10
2.251439e-10
2.306029e-10
2.090883e-10
2.111077e-10
2.149128e-10
2.176451e-10
2.203934e-10
2.209551e-10
2.254364e-10
2.091137e-10
2.109689e-10
2.146573e-10
2.175294e-10
2.192374e-10
2.203854e-10
2.090179e-10
2.107362e-10
2.145535e-10
2.176172e-10
2.192983e-10
2.207217e-10
2.088703e-10
2.104185e-10
2.143809e-10
2.172418e-10
2.189107e-10
2.200776e-10
2.0882e-10
2.103946e-10
2.143712e-10
2.168056e-10
2.198493e-10
2.229325e-10
2.255869e-10
2.090498e-10
2.104372e-10
2.147244e-10
2.175116e-10
2.205436e-10
2.260085e-10
2.31975e-10
2.096159e-10
2.111199e-10
2.156394e-10
2.188798e-10
2.222248e-10
2.270054e-10
2.353789e-10
2.102756e-10
2.118733e-10
2.162408e-10
2.196879e-10
2.240017e-10
2.286103e-10
2.356371e-10
2.112452e-10
2.129874e-10
2.181301e-10
2.213719e-10
2.25099e-10
2.304665e-10
2.401438e-10
2.123725e-10
2.143092e-10
2.187673e-10
2.221202e-10
2.269285e-10
2.319558e-10
2.41723e-10
2.137598e-10
2.155331e-10
2.198563e-10
2.23857e-10
2.281702e-10
2.329558e-10
2.481653e-10
2.147484e-10
2.16976e-10
2.210305e-10
2.250915e-10
2.28965e-10
2.338735e-10
2.47584e-10
2.157231e-10
2.177847e-10
2.219813e-10
2.260583e-10
2.300694e-10
2.351163e-10
2.621848e-10
2.167353e-10
2.189547e-10
2.226236e-10
2.268856e-10
2.307928e-10
2.369405e-10
2.560469e-10
2.172409e-10
2.196081e-10
2.232252e-10
2.276731e-10
2.32077e-10
2.383971e-10
2.646928e-10
2.175461e-10
2.198935e-10
2.236795e-10
2.281687e-10
2.333177e-10
2.390673e-10
2.605419e-10
2.17854e-10
2.199955e-10
2.237629e-10
2.287131e-10
2.343034e-10
2.405245e-10
2.791783e-10
2.184291e-10
2.201418e-10
2.238926e-10
2.289397e-10
2.350304e-10
2.425638e-10
2.800784e-10
2.188678e-10
2.207432e-10
2.241404e-10
2.287708e-10
2.350509e-10
2.445341e-10
2.9816e-10
2.191093e-10
2.209088e-10
2.243514e-10
2.288098e-10
2.352171e-10
2.454659e-10
3.053862e-10
2.192158e-10
2.21033e-10
2.244184e-10
2.288394e-10
2.356776e-10
2.453333e-10
2.880517e-10
2.192872e-10
2.211284e-10
2.245009e-10
2.290256e-10
2.356912e-10
2.450435e-10
2.698336e-10
2.193408e-10
2.212147e-10
2.245847e-10
2.293796e-10
2.358063e-10
2.452037e-10
2.623623e-10
2.193895e-10
2.212908e-10
2.247219e-10
2.296362e-10
2.359e-10
2.453562e-10
2.743886e-10
2.194327e-10
2.21362e-10
2.249251e-10
2.297159e-10
2.359942e-10
2.455065e-10
2.612217e-10
2.194712e-10
2.214017e-10
2.251612e-10
2.297817e-10
2.36084e-10
2.457264e-10
7.470716e-10
2.195136e-10
2.215266e-10
2.252225e-10
2.29843e-10
2.361678e-10
2.45986e-10
9.171974e-10
2.195775e-10
2.216343e-10
2.25269e-10
2.298992e-10
2.362458e-10
2.461474e-10
9.613914e-10
2.196636e-10
2.217763e-10
2.253074e-10
2.299508e-10
2.363187e-10
2.46809e-10
3.079064e-10
2.196926e-10
2.218028e-10
2.253438e-10
2.299983e-10
2.363858e-10
2.469153e-10
2.721432e-10
2.197423e-10
2.226264e-10
2.264289e-10
2.300485e-10
2.364516e-10
2.470134e-10
2.759795e-10
2.198036e-10
2.226517e-10
2.264633e-10
2.300891e-10
2.365317e-10
2.476107e-10
2.825159e-10
2.198229e-10
2.226739e-10
2.264938e-10
2.301284e-10
2.365968e-10
2.479115e-10
2.902848e-10
2.198377e-10
2.226935e-10
2.265221e-10
2.301653e-10
2.366524e-10
2.479834e-10
2.983792e-10
2.198537e-10
2.227123e-10
2.26549e-10
2.302006e-10
2.367117e-10
2.48053e-10
3.079361e-10
2.198691e-10
2.227297e-10
2.265741e-10
2.302343e-10
2.370225e-10
2.481456e-10
3.199904e-10
2.19881e-10
2.227461e-10
2.26598e-10
2.30266e-10
2.371492e-10
2.482211e-10
3.323117e-10
2.198923e-10
2.227619e-10
2.266207e-10
2.302958e-10
2.371867e-10
2.482846e-10
3.491116e-10
2.19903e-10
2.227767e-10
2.266422e-10
2.303244e-10
2.37223e-10
2.483462e-10
3.673844e-10
2.199134e-10
2.227907e-10
2.266629e-10
2.303514e-10
2.372571e-10
2.484052e-10
3.899621e-10
2.199229e-10
2.228041e-10
2.266824e-10
2.303772e-10
2.372898e-10
2.484616e-10
4.169577e-10
2.19932e-10
2.228175e-10
2.267016e-10
2.304089e-10
2.374538e-10
2.485147e-10
4.448109e-10
2.199408e-10
2.228307e-10
2.267197e-10
2.304372e-10
2.376527e-10
2.485649e-10
4.742845e-10
2.199493e-10
2.228433e-10
2.267372e-10
2.3046e-10
2.376751e-10
2.48611e-10
5.026695e-10
2.199573e-10
2.228554e-10
2.267539e-10
2.30482e-10
2.376967e-10
2.486559e-10
5.446622e-10
2.199652e-10
2.228669e-10
2.267701e-10
2.30503e-10
2.37717e-10
2.486929e-10
5.574517e-10
2.199727e-10
2.228782e-10
2.267857e-10
2.305234e-10
2.377366e-10
2.487928e-10
5.602087e-10
2.199803e-10
2.228894e-10
2.268008e-10
2.305431e-10
2.377972e-10
2.489606e-10
5.631101e-10
2.199879e-10
2.229004e-10
2.268206e-10
2.30605e-10
2.379002e-10
2.491291e-10
5.657497e-10
2.199961e-10
2.229153e-10
2.268978e-10
2.307097e-10
2.380042e-10
2.49298e-10
5.682918e-10
2.200072e-10
2.229761e-10
2.269803e-10
2.308154e-10
2.381086e-10
2.494679e-10
5.707969e-10
2.200541e-10
2.230421e-10
2.27067e-10
2.309219e-10
2.382091e-10
2.496461e-10
5.732727e-10
2.201055e-10
2.231089e-10
2.271547e-10
2.310231e-10
2.381702e-10
2.498346e-10
5.757228e-10
2.201584e-10
2.231767e-10
2.272431e-10
2.311312e-10
2.382982e-10
2.500251e-10
5.781362e-10
2.202125e-10
2.232452e-10
2.273321e-10
2.312396e-10
2.384308e-10
2.502177e-10
5.804951e-10
2.202688e-10
2.233144e-10
2.274215e-10
2.313486e-10
2.385642e-10
2.504113e-10
5.828063e-10
2.203256e-10
2.233833e-10
2.275109e-10
2.314571e-10
2.386982e-10
2.506059e-10
5.849691e-10
2.203821e-10
2.234532e-10
2.276005e-10
2.315655e-10
2.388325e-10
2.508034e-10
6.102344e-10
3.37034e-07
4.191169e-07
4.195783e-07
4.195786e-07
4.195786e-07
4.195786e-07
4.195786e-07
4.195786e-07
4.195786e-07
4.195786e-07
4.195786e-07
4.195786e-07
4.195786e-07
4.195786e-07
4.195786e-07
4.195786e-07
4.195786e-07
4.195786e-07
3.51908e-07
4.193794e-07
4.19579e-07
4.195792e-07
4.195792e-07
4.195791e-07
4.195791e-07
4.195791e-07
4.195791e-07
4.195791e-07
4.195791e-07
4.195791e-07
4.195791e-07
4.195791e-07
4.195791e-07
4.195791e-07
4.195791e-07
4.195791e-07
3.489846e-07
4.193414e-07
4.195791e-07
4.195792e-07
4.195792e-07
4.195792e-07
4.195792e-07
4.195792e-07
4.195792e-07
4.195792e-07
4.195792e-07
4.195792e-07
4.195792e-07
4.195792e-07
4.195792e-07
4.195792e-07
4.195792e-07
4.195792e-07
3.460514e-07
4.193332e-07
4.195791e-07
4.195792e-07
4.195792e-07
4.195792e-07
4.195792e-07
4.195792e-07
4.195792e-07
4.195792e-07
4.195792e-07
4.195792e-07
4.195792e-07
4.195792e-07
4.195792e-07
4.195792e-07
4.195792e-07
4.195792e-07
3.425971e-07
4.193259e-07
4.195791e-07
4.195792e-07
4.195792e-07
4.195792e-07
4.195792e-07
4.195792e-07
4.195792e-07
4.195792e-07
4.195792e-07
4.195792e-07
4.195792e-07
4.195792e-07
4.195792e-07
4.195792e-07
4.195792e-07
4.195792e-07
3.38625e-07
4.193164e-07
4.195791e-07
4.195792e-07
4.195792e-07
4.195792e-07
4.195792e-07
4.195792e-07
4.195792e-07
4.195792e-07
4.195792e-07
4.195792e-07
4.195792e-07
4.195792e-07
4.195792e-07
4.195792e-07
4.195792e-07
4.195792e-07
3.341966e-07
4.193059e-07
4.195791e-07
4.195792e-07
4.195792e-07
4.195792e-07
4.195792e-07
4.195792e-07
4.195792e-07
4.195792e-07
4.195792e-07
4.195792e-07
4.195792e-07
4.195792e-07
4.195792e-07
4.195792e-07
4.195792e-07
4.195792e-07
3.293697e-07
4.192946e-07
4.19579e-07
4.195792e-07
4.195792e-07
4.195792e-07
4.195792e-07
4.195792e-07
4.195792e-07
4.195792e-07
4.195792e-07
4.195792e-07
4.195792e-07
4.195792e-07
4.195792e-07
4.195792e-07
4.195792e-07
4.195792e-07
3.241927e-07
4.192827e-07
4.19579e-07
4.195792e-07
4.195792e-07
4.195792e-07
4.195792e-07
4.195792e-07
4.195792e-07
4.195792e-07
4.195792e-07
4.195792e-07
4.195792e-07
4.195792e-07
4.195792e-07
4.195792e-07
4.195792e-07
4.195792e-07
3.187124e-07
4.192703e-07
4.19579e-07
4.195792e-07
4.195792e-07
4.195792e-07
4.195792e-07
4.195792e-07
4.195792e-07
4.195792e-07
4.195792e-07
4.195792e-07
4.195792e-07
4.195792e-07
4.195792e-07
4.195792e-07
4.195792e-07
4.195792e-07
3.129651e-07
4.192571e-07
4.19579e-07
4.195792e-07
4.195792e-07
4.195792e-07
4.195792e-07
4.195792e-07
4.195792e-07
4.195792e-07
4.195792e-07
4.195792e-07
4.195792e-07
4.195792e-07
4.195792e-07
4.195792e-07
4.195792e-07
4.195792e-07
3.06977e-07
4.192418e-07
4.19579e-07
4.195792e-07
4.195792e-07
4.195792e-07
4.195792e-07
4.195792e-07
4.195792e-07
4.195792e-07
4.195792e-07
4.195792e-07
4.195792e-07
4.195792e-07
4.195792e-07
4.195792e-07
4.195792e-07
4.195792e-07
3.007764e-07
4.1922e-07
4.19579e-07
4.195792e-07
4.195792e-07
4.195792e-07
4.195792e-07
4.195792e-07
4.195792e-07
4.195792e-07
4.195792e-07
4.195792e-07
4.195792e-07
4.195792e-07
4.195792e-07
4.195792e-07
4.195792e-07
4.195792e-07
2.93453e-07
4.191821e-07
4.19579e-07
4.195792e-07
4.195792e-07
4.195792e-07
4.195792e-07
4.195792e-07
4.195792e-07
4.195792e-07
4.195792e-07
4.195792e-07
4.195792e-07
4.195792e-07
4.195792e-07
4.195792e-07
4.195792e-07
4.195792e-07
2.484367e-07
4.190049e-07
4.195789e-07
4.195792e-07
4.195792e-07
4.195792e-07
4.195792e-07
4.195792e-07
4.195792e-07
4.195792e-07
4.195792e-07
4.195792e-07
4.195792e-07
4.195792e-07
4.195792e-07
4.195792e-07
4.195792e-07
4.195792e-07
2.314277e-07
4.187854e-07
4.195794e-07
4.195792e-07
4.195792e-07
4.195792e-07
4.195792e-07
4.195792e-07
4.195792e-07
4.195792e-07
4.195792e-07
4.195792e-07
4.195792e-07
4.195792e-07
4.195792e-07
4.195792e-07
4.195792e-07
4.195792e-07
2.174302e-07
4.188804e-07
4.19577e-07
4.195795e-07
4.195792e-07
4.195792e-07
4.195792e-07
4.195792e-07
4.195792e-07
4.195792e-07
4.195792e-07
4.195792e-07
4.195792e-07
4.195792e-07
4.195792e-07
4.195792e-07
4.195792e-07
4.195792e-07
2.039797e-07
4.188321e-07
4.195779e-07
4.195784e-07
4.195794e-07
4.195792e-07
4.195792e-07
4.195792e-07
4.195792e-07
4.195792e-07
4.195792e-07
4.195792e-07
4.195792e-07
4.195792e-07
4.195792e-07
4.195792e-07
4.195792e-07
4.195792e-07
1.910946e-07
4.187693e-07
4.195786e-07
4.195788e-07
4.195787e-07
4.195792e-07
4.195792e-07
4.195792e-07
4.195792e-07
4.195792e-07
4.195792e-07
4.195792e-07
4.195792e-07
4.195792e-07
4.195792e-07
4.195792e-07
4.195792e-07
4.195792e-07
1.79143e-07
4.18699e-07
4.195786e-07
4.195792e-07
4.195791e-07
4.195791e-07
4.195792e-07
4.195792e-07
4.195792e-07
4.195792e-07
4.195792e-07
4.195792e-07
4.195792e-07
4.195792e-07
4.195792e-07
4.195792e-07
4.195792e-07
4.195792e-07
1.679372e-07
4.186178e-07
4.195786e-07
4.195792e-07
4.195792e-07
4.195791e-07
4.195792e-07
4.195792e-07
4.195792e-07
4.195792e-07
4.195792e-07
4.195792e-07
4.195792e-07
4.195792e-07
4.195792e-07
4.195792e-07
4.195792e-07
4.195792e-07
1.579327e-07
4.185293e-07
4.195785e-07
4.195792e-07
4.195792e-07
4.195792e-07
4.195792e-07
4.195792e-07
4.195792e-07
4.195792e-07
4.195792e-07
4.195792e-07
4.195792e-07
4.195792e-07
4.195792e-07
4.195792e-07
4.195792e-07
4.195792e-07
1.488266e-07
4.184561e-07
4.195785e-07
4.195792e-07
4.195792e-07
4.195792e-07
4.195792e-07
4.195792e-07
4.195792e-07
4.195792e-07
4.195792e-07
4.195792e-07
4.195792e-07
4.195792e-07
4.195792e-07
4.195792e-07
4.195792e-07
4.195792e-07
1.399774e-07
4.183712e-07
4.195784e-07
4.195792e-07
4.195792e-07
4.195792e-07
4.195792e-07
4.195792e-07
4.195792e-07
4.195792e-07
4.195792e-07
4.195792e-07
4.195792e-07
4.195792e-07
4.195792e-07
4.195792e-07
4.195792e-07
4.195792e-07
1.310851e-07
4.182689e-07
4.195783e-07
4.195792e-07
4.195792e-07
4.195792e-07
4.195792e-07
4.195792e-07
4.195792e-07
4.195792e-07
4.195792e-07
4.195792e-07
4.195792e-07
4.195792e-07
4.195792e-07
4.195792e-07
4.195792e-07
4.195792e-07
1.227356e-07
4.181772e-07
4.195782e-07
4.195792e-07
4.195792e-07
4.195792e-07
4.195792e-07
4.195792e-07
4.195792e-07
4.195792e-07
4.195792e-07
4.195792e-07
4.195792e-07
4.195792e-07
4.195792e-07
4.195792e-07
4.195792e-07
4.195792e-07
1.146747e-07
4.180935e-07
4.195782e-07
4.195792e-07
4.195792e-07
4.195792e-07
4.195792e-07
4.195792e-07
4.195792e-07
4.195792e-07
4.195792e-07
4.195792e-07
4.195792e-07
4.195792e-07
4.195792e-07
4.195792e-07
4.195792e-07
4.195792e-07
1.066679e-07
4.179981e-07
4.195781e-07
4.195792e-07
4.195792e-07
4.195792e-07
4.195792e-07
4.195792e-07
4.195792e-07
4.195792e-07
4.195792e-07
4.195792e-07
4.195792e-07
4.195792e-07
4.195792e-07
4.195792e-07
4.195792e-07
4.195792e-07
9.920395e-08
4.178882e-07
4.19578e-07
4.195792e-07
4.195792e-07
4.195792e-07
4.195792e-07
4.195792e-07
4.195792e-07
4.195792e-07
4.195792e-07
4.195792e-07
4.195792e-07
4.195792e-07
4.195792e-07
4.195792e-07
4.195792e-07
4.195792e-07
9.195211e-08
4.178106e-07
4.195779e-07
4.195774e-07
4.195774e-07
4.195791e-07
4.195792e-07
4.195792e-07
4.195792e-07
4.195792e-07
4.195792e-07
4.195792e-07
4.195792e-07
4.195792e-07
4.195792e-07
4.195792e-07
4.195792e-07
4.195792e-07
8.632168e-08
4.177573e-07
4.195778e-07
4.195519e-07
4.195534e-07
4.195789e-07
4.195792e-07
4.195793e-07
4.195792e-07
4.195792e-07
4.195792e-07
4.195792e-07
4.195792e-07
4.195792e-07
4.195792e-07
4.195792e-07
4.195792e-07
4.195792e-07
7.956032e-08
4.177936e-07
4.195778e-07
4.195135e-07
4.195418e-07
4.195779e-07
4.195792e-07
4.195778e-07
4.195779e-07
4.195791e-07
4.195792e-07
4.195792e-07
4.195792e-07
4.195792e-07
4.195792e-07
4.195792e-07
4.195792e-07
4.195792e-07
7.25461e-08
4.179731e-07
4.195798e-07
4.19583e-07
4.195947e-07
4.195791e-07
4.195792e-07
4.19579e-07
4.19579e-07
4.195792e-07
4.195792e-07
4.195792e-07
4.195792e-07
4.195792e-07
4.195792e-07
4.195792e-07
4.195792e-07
4.195792e-07
6.539132e-08
4.189825e-07
4.195761e-07
4.195134e-07
4.195008e-07
4.195727e-07
4.195791e-07
4.195791e-07
4.195792e-07
4.195792e-07
4.195792e-07
4.195792e-07
4.195792e-07
4.195792e-07
4.195792e-07
4.195792e-07
4.195792e-07
4.195792e-07
4.922456e-08
4.16907e-07
4.195587e-07
4.192726e-07
4.193386e-07
4.193694e-07
4.195787e-07
4.195792e-07
4.195784e-07
4.19579e-07
4.195792e-07
4.195792e-07
4.195792e-07
4.195792e-07
4.195792e-07
4.195792e-07
4.195792e-07
4.195792e-07
4.219442e-08
4.173022e-07
4.195493e-07
4.195662e-07
4.194702e-07
4.195425e-07
4.195787e-07
4.19575e-07
4.195733e-07
4.195789e-07
4.195792e-07
4.195792e-07
4.195792e-07
4.195792e-07
4.195792e-07
4.195792e-07
4.195791e-07
4.195792e-07
3.429678e-08
4.175395e-07
4.195262e-07
4.195802e-07
4.195792e-07
4.195916e-07
4.195837e-07
4.19577e-07
4.19577e-07
4.195779e-07
4.195774e-07
4.195786e-07
4.195791e-07
4.195792e-07
4.195792e-07
4.195792e-07
4.195791e-07
4.195792e-07
7.555716e-08
4.150415e-07
4.193657e-07
4.195574e-07
4.19707e-07
4.197019e-07
4.196141e-07
4.195287e-07
4.195138e-07
4.195596e-07
4.195469e-07
4.195513e-07
4.195768e-07
4.19577e-07
4.195791e-07
4.195791e-07
4.195791e-07
4.195792e-07
8.80316e-08
4.125969e-07
4.193077e-07
4.19816e-07
4.198608e-07