/*--------------------------------*- C++ -*----------------------------------*\
| =========                 |                                                 |
| \\      /  F ield         | OpenFOAM: The Open Source CFD Toolbox           |
|  \\    /   O peration     | Version:  2206                                  |
|   \\  /    A nd           | Website:  www.openfoam.com                      |
|    \\/     M anipulation  |                                                 |
\*---------------------------------------------------------------------------*/
FoamFile
{
    version     2.0;
    format      ascii;
    arch        "LSB;label=32;scalar=64";
    class       volScalarField;
    location    "1.4";
    object      muEff;
}
// * * * * * * * * * * * * * * * * * * * * * * * * * * * * * * * * * * * * * //

dimensions      [1 -1 -1 0 0 0 0];

internalField   nonuniform List<scalar> 
13078
(
0.0368053
0.0368053
0.0368053
0.0368053
0.0368053
0.0368053
0.0368053
0.0368053
0.0368053
0.0368053
0.0368053
0.0368053
0.0368053
0.0368053
0.0368053
0.0368053
0.0368053
0.0368053
0.0368053
0.0368053
0.0368053
0.0368053
0.0368053
0.0368053
0.0368053
0.0368053
0.0368053
0.0368053
0.0368053
0.0368053
0.0368053
0.0368053
0.0368053
0.0368053
0.0368053
0.0368053
0.0368053
0.0368053
0.0368053
0.0368053
0.0368053
0.0368053
0.0368053
0.0368053
0.0368053
0.0368053
0.0368053
0.0368053
0.0368053
0.0368053
0.0368053
0.0368053
0.0368053
0.0368053
0.0368053
0.0368053
0.0368053
0.0368053
0.0368053
0.0368053
0.0368053
0.0368053
0.0368053
0.0368053
0.0368053
0.0368053
0.0368053
0.0368053
0.0368053
0.0368053
0.0368053
0.0368053
0.0368053
0.0368053
0.0368053
0.0368053
0.0368053
0.0368053
0.0368053
0.0368053
0.0368053
0.0368053
0.0368053
0.0368053
0.0368053
0.0368053
0.0368053
0.0368053
0.0368053
0.0368053
0.0368053
0.0368053
0.0368053
0.0368053
0.0368053
0.0368053
0.0368053
0.0368053
0.0368053
0.0368053
0.0368053
0.0368053
0.0368053
0.0368053
0.0368053
0.0368053
0.0368053
0.0368053
0.0368053
0.0368053
0.0368053
0.0368053
0.0368053
0.0368053
0.0368053
0.0368053
0.0368053
0.0368053
0.0368053
0.0368053
0.0368053
0.0368053
0.0368053
0.0368053
0.0368053
0.0368053
0.0368053
0.0368053
0.0368053
0.0368053
0.0368053
0.0368053
0.0368053
0.0368053
0.0368053
0.0368053
0.0368053
0.0368053
0.0368053
0.0368053
0.0368053
0.0368053
0.0368053
0.0368053
0.0368053
0.0368053
0.0368053
0.0368053
0.0368053
0.0368053
0.0368053
0.0368053
0.0368053
0.0368053
0.0368053
0.0368053
0.0368053
0.0368053
0.0368053
0.0368053
0.0368053
0.0368053
0.0368053
0.0368053
0.0368053
0.0368053
0.0368053
0.0368053
0.0368053
0.0368053
0.0368053
0.0368053
0.0368053
0.0368053
0.0368053
0.0368053
0.0368053
0.0368053
0.0368053
0.0368053
0.0368053
0.0368053
0.0368053
0.0368053
0.0368053
0.0368053
0.0368053
0.0368053
0.0368053
0.0368053
0.0368053
0.0368053
0.0368053
0.0368053
0.0368053
0.0368053
0.0368053
0.0368053
0.0368053
0.0368053
0.0368053
0.0368053
0.0368053
0.0368053
0.0368053
0.0368053
0.0368053
0.0368053
0.0368053
0.0368053
0.0368053
0.0368053
0.0368053
0.0368053
0.0368053
0.0368053
0.0368053
0.0368053
0.0368053
0.0368053
0.0368053
0.0368053
0.0368053
0.0368053
0.0368053
0.0368053
0.0368053
0.0368053
0.0368053
0.0368053
0.0368053
0.0368053
0.0368053
0.0368053
0.0368053
0.0368053
0.0368053
0.0368053
0.0368053
0.0368053
0.0368053
0.0368053
0.0368053
0.0368053
0.0368053
0.0368053
0.0368053
0.0368053
0.0368053
0.0368053
0.0368053
0.0368053
0.0368053
0.0368053
0.0368053
0.0368053
0.0368053
0.0368053
0.0368053
0.0368053
0.0368053
0.0368053
0.0368053
0.0368053
0.0368053
0.0368053
0.0368053
0.0368053
0.0368053
0.0368053
0.0368053
0.0368053
0.0368053
0.0368053
0.0368053
0.0368053
0.0368053
0.0368053
0.0368053
0.0368053
0.0368053
0.0368053
0.0368053
0.0368053
0.0368053
0.0368053
0.0368053
0.0368053
0.0368053
0.0368053
0.0368053
0.0368053
0.0368053
0.0368053
0.0368053
0.0368053
0.0368053
0.0368053
0.0368053
0.0368053
0.0368053
0.0368053
0.0368053
0.0368053
0.0368053
0.0368053
0.0368053
0.0368053
0.0368053
0.0368053
0.0368053
0.0368053
0.0368053
0.0368053
0.0368053
0.0368053
0.0368053
0.0368053
0.0368053
0.0368053
0.0368053
0.0368053
0.0368053
0.0368053
0.0368053
0.0368053
0.0368053
0.0368053
0.0368053
0.0368053
0.0368053
0.0368053
0.0368053
0.0368053
0.0368053
0.0368053
0.0368053
0.0368053
0.0368053
0.0368053
0.0368053
0.0368053
0.0368053
0.0368053
0.0368053
0.0368053
0.0368053
0.0368053
0.0368053
0.0368053
0.0368053
0.0368053
0.0368053
0.0368053
0.0368053
0.0368053
0.0368053
0.0368053
0.0368053
0.0368053
0.0368053
0.0368053
0.0368053
0.0368053
0.0368053
0.0368053
0.0368053
0.0368053
0.0368053
0.0368053
0.0368053
0.0368053
0.0368053
0.0368053
0.0368053
0.0368053
0.0368053
0.0368053
0.0368053
0.0368053
0.0368053
0.0368053
0.0368053
0.0368053
0.0368053
0.0368053
0.0368053
0.0368053
0.0368053
0.0368053
0.0368053
0.0368053
0.0368053
0.0368053
0.0368053
0.0368053
0.0368053
0.0368053
0.0368053
0.0368053
0.0368053
0.0368053
0.0368053
0.0368053
0.0368053
0.0368053
0.0368053
0.0368053
0.0368053
0.0368053
0.0368053
0.0368053
0.0368053
0.0368053
0.0368053
0.0368053
0.0368053
0.0368053
0.0368053
0.0368053
0.0368053
0.0368053
0.0368053
0.0368053
0.0368053
0.0368053
0.0368053
0.0368053
0.0368053
0.0368053
0.0368053
0.0368053
0.0368053
0.0368053
0.0368053
0.0368053
0.0368053
0.0368053
0.0368053
0.0368053
0.0368053
0.0368053
0.0368053
0.0368053
0.0368053
0.0368053
0.0368053
0.0368053
0.0368053
0.0368053
0.0368053
0.0368053
0.0368053
0.0368053
0.0368053
0.0368053
0.0368053
0.0368053
0.0368053
0.0368053
0.0368053
0.0368053
0.0368053
0.0368053
0.0368053
0.0368053
0.0368053
0.0368053
0.0368053
0.0368053
0.0368053
0.0368053
0.0368053
0.0368053
0.0368053
0.0368053
0.0368053
0.0368053
0.0368053
0.0368053
0.0368053
0.0368053
0.0368053
0.0368053
0.0368053
0.0368053
0.0368053
0.0368053
0.0368053
0.0368053
0.0368053
0.0368053
0.0368053
0.0368053
0.0368053
0.0368053
0.0368053
0.0368053
0.0368053
0.0368053
0.0368053
0.0368053
0.0368053
0.0368053
0.0368053
0.0368053
0.0368053
0.0368053
0.0368053
0.0368053
0.0368053
0.0368053
0.0368053
0.0368053
0.0368053
0.0368053
0.0368053
0.0368053
0.0368053
0.0368053
0.0368053
0.0368053
0.0368053
0.0368053
0.0368053
0.0368053
0.0368053
0.0368053
0.0368053
0.0368053
0.0368053
0.0368053
0.0368053
0.0368053
0.0368053
0.0368053
0.0368053
0.0368053
0.0368053
0.0368053
0.0368053
0.0368053
0.0368053
0.0368053
0.0368053
0.0368053
0.0368053
0.0368053
0.0368053
0.0368053
0.0368053
0.0368053
0.0368053
0.0368053
0.0368053
0.0368053
0.0368053
0.0368053
0.0368053
0.0368053
0.0368053
0.0368053
0.0368053
0.0368053
0.0368053
0.0368053
0.0368053
0.0368053
0.0368053
0.0368053
0.0368053
0.0368053
0.0368053
0.0368053
0.0368053
0.0368053
0.0368053
0.0368053
0.0368053
0.0368053
0.0368053
0.0368053
0.0368053
0.0368053
0.0368053
0.0368053
0.0368053
0.0368053
0.0368053
0.0368053
0.0368053
0.0368053
0.0368053
0.0368053
0.0368053
0.0368053
0.0368053
0.0368053
0.0368053
0.0368053
0.0368053
0.0368053
0.0368053
0.0368053
0.0368053
0.0368053
0.0368053
0.0368053
0.0368053
0.0368053
0.0368053
0.0368053
0.0368053
0.0368053
0.0368053
0.0368053
0.0368053
0.0368053
0.0368053
0.0368053
0.0368053
0.0368053
0.0368053
0.0368053
0.0368053
0.0368053
0.0368053
0.0368053
0.0368053
0.0368053
0.0368053
0.0368053
0.0368053
0.0368053
0.0368053
0.0368053
0.0368053
0.0368053
0.0368053
0.0368053
0.0368053
0.0368053
0.0368053
0.0368053
0.0368053
0.0368053
0.0368053
0.0368053
0.0368053
0.0368053
0.0368053
0.0368053
0.0368053
0.0368053
0.0368053
0.0368053
0.0368053
0.0368053
0.0368053
0.0368053
0.0368053
0.0368053
0.0368053
0.0368053
0.0368053
0.0368053
0.0368053
0.0368053
0.0368053
0.0368053
0.0368053
0.0368053
0.0368053
0.0368053
0.0368053
0.0368053
0.0368053
0.0368053
0.0368053
0.0368053
0.0368053
0.0368053
0.0368053
0.0368053
0.0368053
0.0368053
0.0368053
0.0368053
0.0368053
0.0368053
0.0368053
0.0368053
0.0368053
0.0368053
0.0368053
0.0368053
0.0368053
0.0368053
0.0368053
0.0368053
0.0368053
0.0368053
0.0368053
0.0368053
0.0368053
0.0368053
0.0368053
0.0368053
0.0368053
0.0368053
0.0368053
0.0368053
0.0368053
0.0368053
0.0368053
0.0368053
0.0368053
0.0368053
0.0368053
0.0368053
0.0368053
0.0368053
0.0368053
0.0368053
0.0368053
0.0368053
0.0368053
0.0368053
0.0368053
0.0368053
0.0368053
0.0368053
0.0368053
0.0368053
0.0368053
0.0368053
0.0368053
0.0368053
0.0368053
0.0368053
0.0368053
0.0368053
0.0368053
0.0368053
0.0368053
0.0368053
0.0368053
0.0368053
0.0368053
0.0368053
0.0368053
0.0368053
0.0368053
0.0368053
0.0368053
0.0368053
0.0368053
0.0368053
0.0368053
0.0368053
0.0368053
0.0368053
0.0368053
0.0368053
0.0368053
0.0368053
0.0368053
0.0368053
0.0368053
0.0368053
0.0368053
0.0368053
0.0368053
0.0368053
0.0368053
0.0368053
0.0368053
0.0368053
0.0368053
0.0368053
0.0368053
0.0368053
0.0368053
0.0368053
0.0368053
0.0368053
0.0368053
0.0368053
0.0368053
0.0368053
0.0368053
0.0368053
0.0368053
0.0368053
0.0368053
0.0368053
0.0368053
0.0368053
0.0368053
0.0368053
0.0368053
0.0368053
0.0368053
0.0368053
0.0368053
0.0368053
0.0368053
0.0368053
0.0368053
0.0368053
0.0368053
0.0368053
0.0368053
0.0368053
0.0368053
0.0368053
0.0368053
0.0368053
0.0368053
0.0368053
0.0368053
0.0368053
0.0368053
0.0368053
0.0368053
0.0368053
0.0368053
0.0368053
0.0368053
0.0368053
0.0368053
0.0368053
0.0368053
0.0368053
0.0368053
0.0368053
0.0368053
0.0368053
0.0368053
0.0368053
0.0368053
0.0368053
0.0368053
0.0368053
0.0368053
0.0368053
0.0368053
0.0368053
0.0368053
0.0368053
0.0368053
0.0368053
0.0368053
0.0368053
0.0368053
0.0368053
0.0368053
0.0368053
0.0368053
0.0368053
0.0368053
0.0368053
0.0368053
0.0368053
0.0368053
0.0368053
0.0368053
0.0368053
0.0368053
0.0368053
0.0368053
0.0368053
0.0368053
0.0368053
0.0368053
0.0368053
0.0368053
0.0368053
0.0368053
0.0368053
0.0368053
0.0368053
0.0368053
0.0368053
0.0368053
0.0368053
0.0368053
0.0368053
0.0368053
0.0368053
0.0368053
0.0368053
0.0368053
0.0368053
0.0368053
0.0368053
0.0368053
0.0368053
0.0368053
0.0368053
0.0368053
0.0368053
0.0368053
0.0368053
0.0368053
0.0368053
0.0368053
0.0368053
0.0368053
0.0368053
0.0368053
0.0368053
0.0368053
0.0368053
0.0368053
0.0368053
0.0368053
0.0368053
0.0368053
0.0368053
0.0368053
0.0368053
0.0368053
0.0368053
0.0368053
0.0368053
0.0368053
0.0368053
0.0368053
0.0368053
0.0368053
0.0368053
0.0368053
0.0368053
0.0368053
0.0368053
0.0368053
0.0368053
0.0368053
0.0368053
0.0368053
0.0368053
0.0368053
0.0368053
0.0368053
0.0368053
0.0368053
0.0368053
0.0368053
0.0368053
0.0368053
0.0368053
0.0368053
0.0368053
0.0368053
0.0368053
0.0368053
0.0368053
0.0368053
0.0368053
0.0368053
0.0368053
0.0368053
0.0368053
0.0368053
0.0368053
0.0368053
0.0368053
0.0368053
0.0368053
0.0368053
0.0368053
0.0368053
0.0368053
0.0368053
0.0368053
0.0368053
0.0368053
0.0368053
0.0368053
0.0368053
0.0368053
0.0368053
0.0368053
0.0368053
0.0368053
0.0368053
0.0368053
0.0368053
0.0368053
0.0368053
0.0368053
0.0368053
0.0368053
0.0368053
0.0368053
0.0368053
0.0368053
0.0368053
0.0368053
0.0368053
0.0368053
0.0368053
0.0368053
0.0368053
0.0368053
0.0368053
0.0368053
0.0368053
0.0368053
0.0368053
0.0368053
0.0368053
0.0368053
0.0368053
0.0368053
0.0368053
0.0368053
0.0368053
0.0368053
0.0368053
0.0368053
0.0368053
0.0368053
0.0368053
0.0368053
0.0368053
0.0368053
0.0368053
0.0368053
0.0368053
0.0368053
0.0368053
0.0368053
0.0368053
0.0368053
0.0368053
0.0368053
0.0368053
0.0368053
0.0368053
0.0368053
0.0368053
0.0368053
0.0368053
0.0368053
0.0368053
0.0368053
0.0368053
0.0368053
0.0368053
0.0368053
0.0368053
0.0368053
0.0368053
0.0368053
0.0368053
0.0368053
0.0368053
0.0368053
0.0368053
0.0368053
0.0368053
0.0368053
0.0368053
0.0368053
0.0368053
0.0368053
0.0368053
0.0368053
0.0368053
0.0368053
0.0368053
0.0368053
0.0368053
0.0368053
0.0368053
0.0368053
0.0368053
0.0368053
0.0368053
0.0368053
0.0368053
0.0368053
0.0368053
0.0368053
0.0368053
0.0368053
0.0368053
0.0368053
0.0368053
0.0368053
0.0368053
0.0368053
0.0368053
0.0368053
0.0368053
0.0368053
0.0368053
0.0368053
0.0368053
0.0368053
0.0368053
0.0368053
0.0368053
0.0368053
0.0368053
0.0368053
0.0368053
0.0368053
0.0368053
0.0368053
0.0368053
0.0368053
0.0368053
0.0368053
0.0368053
0.0368053
0.0368053
0.0368053
0.0368053
0.0368053
0.0368053
0.0368053
0.0368053
0.0368053
0.0368053
0.0368053
0.0368053
0.0368053
0.0368053
0.0368053
0.0368053
0.0368053
0.0368053
0.0368053
0.0368053
0.0368053
0.0368053
0.0368053
0.0368053
0.0368053
0.0368053
0.0368053
0.0368053
0.0368053
0.0368053
0.0368053
0.0368053
0.0368053
0.0368053
0.0368053
0.0368053
0.0368053
0.0368053
0.0368053
0.0368053
0.0368053
0.0368053
0.0368053
0.0368053
0.0368053
0.0368053
0.0368053
0.0368053
0.0368053
0.0368053
0.0368053
0.0368053
0.0368053
0.0368053
0.0368053
0.0368053
0.0368053
0.0368053
0.0368053
0.0368053
0.0368053
0.0368053
0.0368053
0.0368053
0.0368053
0.0368053
0.0368053
0.0368053
0.0368053
0.0368053
0.0368053
0.0368053
0.0368053
0.0368053
0.0368053
0.0368053
0.0368053
0.0368053
0.0368053
0.0368053
0.0368053
0.0368053
0.0368053
0.0368053
0.0368053
0.0368053
0.0368053
0.0368053
0.0368053
0.0368053
0.0368053
0.0368053
0.0368053
0.0368053
0.0368053
0.0368053
0.0368053
0.0368053
0.0368053
0.0368053
0.0368053
0.0368053
0.0368053
0.0368053
0.0368053
0.0368053
0.0368053
0.0368053
0.0368053
0.0368053
0.0368053
0.0368053
0.0368053
0.0368053
0.0368053
0.0368053
0.0368053
0.0368053
0.0368053
0.0368053
0.0368053
0.0368053
0.0368053
0.0368053
0.0368053
0.0368053
0.0368053
0.0368053
0.0368053
0.0368053
0.0368053
0.0368053
0.0368053
0.0368053
0.0368053
0.0368053
0.0368053
0.0368053
0.0368053
0.0368053
0.0368053
0.0368053
0.0368053
0.0368053
0.0368053
0.0368053
0.0368053
0.0368053
0.0368053
0.0368053
0.0368053
0.0368053
0.0368053
0.0368053
0.0368053
0.0368053
0.0368053
0.0368053
0.0368053
0.0368053
0.0368053
0.0368053
0.0368053
0.0368053
0.0368053
0.0368053
0.0368053
0.0368053
0.0368053
0.0368053
0.0368053
0.0368053
0.0368053
0.0368053
0.0368053
0.0368053
0.0368053
0.0368053
0.0368053
0.0368053
0.0368053
0.0368053
0.0368053
0.0368053
0.0368053
0.0368053
0.0368053
0.0368053
0.0368053
0.0368053
0.0368053
0.0368053
0.0368053
0.0368053
0.0368053
0.0368053
0.0368053
0.0368053
0.0368053
0.0368053
0.0368053
0.0368053
0.0368053
0.0368053
0.0368053
0.0368053
0.0368053
0.0368053
0.0368053
0.0368053
0.0368053
0.0368053
0.0368053
0.0368053
0.0368053
0.0368053
0.0368053
0.0368053
0.0368053
0.0368053
0.0368053
0.0368053
0.0368053
0.0368053
0.0368053
0.0368053
0.0368053
0.0368053
0.0368053
0.0368053
0.0368053
0.0368053
0.0368053
0.0368053
0.0368053
0.0368053
0.0368053
0.0368053
0.0368053
0.0368053
0.0368053
0.0368053
0.0368053
0.0368053
0.0368053
0.0368053
0.0368053
0.0368053
0.0368053
0.0368053
0.0368053
0.0368053
0.0368053
0.0368053
0.0368053
0.0368053
0.0368053
0.0368053
0.0368053
0.0368053
0.0368053
0.0368053
0.0368053
0.0368053
0.0368053
0.0368053
0.0368053
0.0368053
0.0368053
0.0368053
0.0368053
0.0368053
0.0368053
0.0368053
0.0368053
0.0368053
0.0368053
0.0368053
0.0368053
0.0368053
0.0368053
0.0368053
0.0368053
0.0368053
0.0368053
0.0368053
0.0368053
0.0368053
0.0368053
0.0368053
0.0368053
0.0368053
0.0368053
0.0368053
0.0368053
0.0368053
0.0368053
0.0368053
0.0368053
0.0368053
0.0368053
0.0368053
0.0368053
0.0368053
0.0368053
0.0368053
0.0368053
0.0368053
0.0368053
0.0368053
0.0368053
0.0368053
0.0368053
0.0368053
0.0368053
0.0368053
0.0368053
0.0368053
0.0368053
0.0368053
0.0368053
0.0368053
0.0368053
0.0368053
0.0368053
0.0368053
0.0368053
0.0368053
0.0368053
0.0368053
0.0368053
0.0368053
0.0368053
0.0368053
0.0368053
0.0368053
0.0368053
0.0368053
0.0368053
0.0368053
0.0368053
0.0368053
0.0368053
0.0368053
0.0368053
0.0368053
0.0368053
0.0368053
0.0368053
0.0368053
0.0368053
0.0368053
0.0368053
0.0368053
0.0368053
0.0368053
0.0368053
0.0368053
0.0368053
0.0368053
0.0368053
0.0368053
0.0368053
0.0368053
0.0368053
0.0368053
0.0368053
0.0368053
0.0368053
0.0368053
0.0368053
0.0368053
0.0368053
0.0368053
0.0368053
0.0368053
0.0368053
0.0368053
0.0368053
0.0368053
0.0368053
0.0368053
0.0368053
0.0368053
0.0368053
0.0368053
0.0368053
0.0368053
0.0368053
0.0368053
0.0368053
0.0368053
0.0368053
0.0368053
0.0368053
0.0368053
0.0368053
0.0368053
0.0368053
0.0368053
0.0368053
0.0368053
0.0368053
0.0368053
0.0368053
0.0368053
0.0368053
0.0368053
0.0368053
0.0368053
0.0368053
0.0368053
0.0368053
0.0368053
0.0368053
0.0368053
0.0368053
0.0368053
0.0368053
0.0368053
0.0368053
0.0368053
0.0368053
0.0368053
0.0368053
0.0368053
0.0368053
0.0368053
0.0368053
0.0368053
0.0368053
0.0368053
0.0368053
0.0368053
0.0368053
0.0368053
0.0368053
0.0368053
0.0368053
0.0368053
0.0368053
0.0368053
0.0368053
0.0368053
0.0368053
0.0368053
0.0368053
0.0368053
0.001009305
0.001002845
0.001008676
0.00102165
0.001039862
0.001065955
0.001104516
0.001182959
0.001292968
0.001345528
0.001356985
0.001361271
0.001362101
0.001360823
0.00135753
0.001354388
0.001350514
0.001346086
0.001021256
0.001010948
0.0010137
0.001023492
0.001039754
0.00106749
0.001112965
0.001191577
0.001271822
0.001308084
0.001319084
0.00132549
0.00132895
0.001330432
0.001329561
0.001328593
0.001326824
0.001324773
0.001022577
0.001016064
0.001024463
0.00103334
0.001051243
0.001083713
0.001138486
0.001210328
0.001260482
0.001283654
0.001288765
0.001296242
0.001300962
0.001304087
0.001304863
0.001305834
0.001305684
0.001305097
0.001024197
0.001025318
0.001030834
0.001042941
0.001064639
0.001104112
0.001163311
0.001213772
0.001253448
0.001271559
0.001265026
0.001271786
0.001277086
0.001281044
0.001283428
0.001285112
0.001286263
0.001286929
0.001026278
0.001029943
0.001040129
0.001050025
0.00106966
0.001105302
0.00116464
0.001218093
0.001250821
0.001264678
0.001248602
0.001250919
0.001256433
0.00126083
0.001265613
0.001265917
0.001268622
0.001270208
0.001028796
0.001028318
0.001051976
0.001056025
0.001073216
0.001105298
0.001163596
0.001223088
0.001249823
0.001258432
0.001239275
0.001232679
0.00123849
0.001242979
0.001247286
0.001248855
0.001252514
0.00125471
0.001031714
0.001026231
0.001066441
0.0010628
0.001075672
0.001103881
0.001159149
0.001225444
0.001249728
0.001251902
0.001234289
0.001217856
0.001222748
0.001227272
0.001232053
0.0012336
0.001237714
0.001240433
0.001034997
0.001024894
0.001078257
0.001070837
0.001078638
0.001103167
0.00115425
0.001224477
0.001250244
0.001247856
0.001230706
0.001207385
0.001208598
0.001212982
0.001218169
0.001219308
0.001224092
0.001227201
0.001038617
0.001023842
0.001087727
0.001078134
0.001082703
0.001104023
0.001150652
0.001220258
0.001250636
0.001244291
0.001226691
0.001199587
0.001195772
0.001200095
0.001205306
0.001206338
0.001211469
0.001214938
0.00104255
0.00102253
0.001098646
0.001084464
0.001088178
0.001106885
0.001148981
0.001214248
0.001248555
0.001240444
0.00122135
0.001191173
0.001184285
0.001188323
0.001193604
0.001194483
0.001199771
0.001203412
0.001046779
0.001019836
0.001093598
0.001089858
0.001095004
0.001111998
0.001150457
0.001207825
0.001238294
0.001229142
0.001209934
0.00118187
0.001173504
0.001177369
0.001182735
0.00118332
0.001188824
0.001192636
0.001051294
0.00101426
0.001047154
0.001080783
0.001099512
0.001119303
0.001155407
0.001202564
0.001223231
0.00121246
0.001196643
0.001174833
0.001163507
0.001167282
0.001172555
0.001173007
0.001178577
0.001182477
0.001056083
0.001008554
0.00101885
0.001034552
0.00108865
0.001129496
0.001165115
0.001199505
0.001208421
0.001197742
0.001187233
0.001169366
0.001154608
0.001157823
0.001163042
0.001163147
0.001168936
0.001172879
0.00106149
0.001003909
0.00101094
0.001020538
0.001041333
0.001145202
0.001180778
0.001198261
0.00119723
0.001186873
0.001179514
0.001163297
0.001147103
0.001148826
0.001154025
0.001153884
0.001159765
0.001163736
0.001079724
0.001005502
0.001011023
0.001017489
0.001027577
0.001074102
0.001192719
0.001194205
0.001187283
0.001176798
0.001170191
0.001156812
0.001140235
0.001140168
0.001145342
0.001145168
0.001150995
0.001155005
0.001080589
0.001005841
0.001011676
0.001016904
0.001023671
0.00104298
0.001136014
0.00118051
0.001173836
0.001164222
0.001159046
0.001147733
0.00113381
0.001131898
0.001137058
0.001136845
0.001142642
0.00114666
0.00108457
0.00100607
0.001010911
0.001016782
0.001022083
0.001035551
0.001074599
0.001147871
0.001155874
0.001149878
0.001146514
0.001138963
0.001127862
0.001124123
0.001129127
0.001128889
0.001134679
0.001138646
0.001090163
0.001007685
0.001011655
0.001016727
0.001022058
0.001032997
0.001057947
0.00110564
0.001136726
0.001135804
0.001135355
0.001130087
0.001120654
0.001116973
0.00112152
0.001121303
0.001127018
0.001130987
0.001096326
0.001008926
0.001013358
0.001016736
0.00102313
0.001033019
0.001051593
0.001078744
0.00111976
0.00112322
0.001124395
0.001120358
0.001114132
0.00110967
0.001114121
0.001113902
0.001119728
0.00112362
0.001102474
0.001009629
0.001014334
0.001017889
0.001022219
0.001039876
0.001047525
0.001065775
0.001105412
0.001112208
0.001114175
0.001112149
0.001105661
0.001103173
0.001106777
0.001106996
0.001112569
0.001116495
0.001108584
0.001009921
0.001014855
0.001018243
0.001023718
0.001038028
0.001053933
0.001057967
0.001095067
0.001103446
0.001105331
0.00110308
0.001098523
0.001096944
0.001097984
0.00110285
0.001105873
0.001109684
0.001114908
0.00101027
0.001015159
0.001018006
0.001025249
0.001045709
0.001044346
0.0010646
0.001085772
0.001095662
0.001097234
0.001094926
0.001092868
0.00109049
0.001092634
0.001095403
0.001099467
0.001103152
0.001121619
0.001010442
0.001015015
0.001017606
0.001027737
0.001051919
0.001046452
0.001055019
0.001092418
0.00108761
0.001089636
0.001088421
0.001085768
0.001084498
0.001086426
0.001089612
0.001093176
0.001097004
0.001128693
0.001010688
0.001014938
0.001017292
0.001030779
0.001054791
0.001047273
0.001057257
0.001079215
0.001086848
0.001082088
0.001082057
0.001078982
0.001078688
0.00108068
0.001083903
0.001087193
0.001090928
0.001136342
0.001011124
0.001014839
0.001017024
0.001033222
0.001051508
0.001048817
0.001059134
0.001076669
0.001077355
0.001077164
0.001074753
0.00107319
0.001073482
0.001076568
0.001078514
0.001081456
0.001085136
0.001144273
0.00101144
0.001014507
0.001016883
0.001033346
0.001045479
0.001051523
0.001059977
0.001073389
0.001071611
0.001069735
0.001068478
0.001067065
0.001067295
0.001067927
0.001072411
0.001075914
0.001079548
0.001152813
0.001011681
0.001014008
0.001017033
0.001031604
0.001039042
0.001051569
0.001058313
0.001069517
0.001066083
0.001063359
0.001062208
0.001061196
0.001064154
0.001064363
0.001068187
0.001070914
0.001074066
0.001161958
0.00101185
0.001013352
0.001017731
0.001028971
0.001033348
0.001045641
0.001057397
0.001065543
0.001060797
0.001057729
0.001056551
0.001056061
0.00105866
0.00105895
0.00106286
0.001065919
0.001069018
0.001171548
0.001012163
0.001012647
0.001019129
0.001025607
0.001028268
0.001040326
0.001056384
0.001062052
0.001055563
0.001052341
0.001051544
0.001051259
0.001054022
0.001054559
0.001058274
0.001061149
0.001065256
0.001181999
0.001012483
0.001011909
0.001019532
0.001019773
0.001023553
0.001035934
0.001057885
0.001054575
0.001049783
0.00104725
0.001046991
0.001046534
0.001048785
0.001051052
0.001053852
0.001056711
0.00105873
0.001193054
0.001013245
0.001010472
0.001012639
0.001015787
0.001021215
0.001034021
0.001060109
0.001037495
0.00104306
0.001042791
0.001042254
0.001042851
0.001044634
0.001046784
0.001049659
0.001052373
0.001055672
0.001204741
0.001014665
0.001009858
0.001012454
0.001012221
0.00102211
0.001032916
0.001050498
0.001049156
0.001042615
0.001039806
0.001038243
0.001039041
0.001040381
0.001043051
0.001045632
0.001048377
0.001052675
0.001217531
0.001013939
0.001009735
0.001006771
0.00101439
0.001019284
0.001028582
0.001044218
0.001040666
0.001037825
0.001035378
0.001034448
0.001035477
0.00103749
0.001039474
0.001041832
0.001043915
0.001046333
0.001232299
0.001007117
0.001009854
0.001006651
0.001010829
0.001020404
0.001025456
0.001039362
0.001031246
0.001032806
0.001030671
0.001030658
0.001031817
0.001033941
0.00103617
0.001038207
0.001039604
0.00104441
0.001278931
0.00101198
0.001011706
0.001007678
0.001006318
0.001015008
0.001020659
0.001029468
0.001024348
0.001032469
0.001026238
0.001026641
0.001028816
0.001030143
0.001032791
0.001035409
0.001040684
0.001040029
0.001303365
0.001005764
0.001006037
0.001005814
0.001008823
0.001019538
0.001024582
0.001014055
0.00102433
0.001023072
0.001022249
0.001023517
0.00102634
0.001028041
0.001029957
0.001031563
0.001033427
0.001035874
0.001340413
0.001002995
0.001004123
0.001005717
0.001008823
0.001014755
0.00101756
0.001015863
0.001019501
0.001018988
0.001019951
0.001020898
0.001022447
0.00102499
0.001027068
0.00102793
0.001031892
0.001034352
0.00178042
0.001001383
0.001004029
0.001008527
0.001009086
0.001010886
0.001013123
0.001013486
0.00101555
0.001016204
0.001017646
0.00101932
0.001022272
0.001023096
0.001024508
0.001027044
0.001028702
0.001031162
0.002842465
0.001000778
0.001006331
0.001004897
0.001006574
0.001008998
0.001010549
0.001011573
0.001012724
0.001014057
0.00101572
0.001017959
0.001019567
0.001021121
0.001022839
0.001025788
0.001026453
0.001028616
0.004849502
0.001001843
0.001001593
0.001003703
0.001006401
0.001008395
0.001008861
0.00100994
0.001011101
0.001012636
0.001014128
0.001016307
0.001017583
0.001019221
0.001022112
0.001021671
0.001024048
0.0010262
0.0368053
0.001002001
0.001003262
0.001003249
0.001005372
0.001007166
0.001007535
0.001008788
0.001010145
0.001011418
0.001012728
0.001013882
0.001015861
0.001017309
0.001019524
0.001020455
0.001022834
0.001024489
0.0368053
0.001000898
0.001004048
0.001004116
0.00100543
0.001006189
0.001006577
0.001007991
0.00100919
0.001010277
0.001011526
0.001014038
0.001014474
0.001015463
0.001016926
0.001019058
0.001021143
0.001022367
0.0368053
0.001000275
0.001002445
0.001003129
0.001004751
0.001005181
0.001006416
0.001007374
0.001008154
0.001009282
0.001009861
0.001011475
0.001012515
0.00101368
0.001016107
0.001017516
0.001018621
0.001022755
0.0368053
0.001001001
0.001002618
0.001002549
0.001003595
0.001004968
0.001005789
0.00100659
0.001007307
0.001008206
0.001009781
0.001010698
0.001010201
0.001014079
0.001014069
0.001015305
0.001018867
0.001019758
0.0368053
0.001003308
0.001002783
0.001001866
0.001003034
0.001004655
0.001004896
0.001005704
0.001006417
0.001006717
0.001008402
0.001008533
0.001009661
0.001011817
0.001012085
0.001015252
0.001016656
0.001017406
0.0368053
0.001008351
0.001001365
0.001001576
0.001002621
0.00100386
0.001004179
0.001004879
0.001005563
0.001005882
0.001007141
0.001007525
0.001009953
0.001010276
0.001011266
0.001012997
0.001014768
0.001018101
0.0368053
0.001017218
0.001000683
0.001002148
0.00100235
0.001002858
0.001003669
0.001004176
0.001004833
0.00100502
0.001006429
0.001006551
0.001008253
0.001008067
0.001010982
0.001012157
0.001013101
0.001014809
0.0368053
0.001116953
0.001001365
0.001001403
0.001002212
0.00100257
0.001003156
0.001003522
0.001003823
0.001004543
0.001005123
0.001005949
0.001006084
0.001008784
0.001009387
0.001010659
0.001012905
0.001014488
0.0368053
0.001302403
0.001002466
0.001001378
0.001001801
0.001002444
0.001002688
0.001002858
0.001003126
0.001003414
0.001004313
0.001004859
0.001006356
0.001007383
0.00100771
0.001010794
0.001011316
0.001013697
0.0368053
0.001732654
0.001005651
0.001001275
0.001002664
0.00100427
0.001003469
0.00100467
0.0010056
0.001005559
0.001007996
0.001008511
0.001010786
0.00101207
0.0368053
0.0368053
0.001003304
0.001003983
0.001004231
0.001005904
0.001006725
0.001008473
0.001009848
0.001012096
0.0368053
0.001002783
0.001003988
0.001005413
0.001006298
0.001007549
0.001009819
0.001011672
0.001003326
0.001004484
0.001006031
0.001006984
0.001009181
0.001010571
0.001004346
0.001005205
0.001006966
0.001008572
0.001010356
0.001004257
0.001005025
0.001006616
0.001008831
0.001010494
0.001003752
0.001005171
0.001007039
0.001008481
0.001010441
0.001003758
0.001005346
0.001006918
0.001008693
0.001010663
0.001004127
0.001005904
0.001007296
0.001008768
0.001010985
0.001004471
0.001005659
0.001007579
0.001009345
0.001011159
0.001003523
0.001005933
0.001007023
0.001007235
0.001010337
0.001011699
0.0368053
0.001004441
0.001005818
0.001006805
0.00100853
0.001010725
0.001013248
0.0368053
0.0368053
0.001004284
0.001005359
0.001006043
0.001007565
0.001010053
0.001011592
0.001013842
0.0368053
0.002365891
0.001008294
0.001003112
0.001004504
0.001004567
0.00100595
0.001006796
0.001009353
0.001010717
0.001013288
0.001014788
0.0368053
0.001403201
0.001004051
0.001001261
0.001001768
0.001002415
0.00100288
0.00100321
0.001003612
0.00100396
0.001005828
0.001005927
0.001007331
0.00100828
0.001009992
0.001013829
0.001013345
0.001016796
0.0368053
0.001221477
0.001003093
0.001001371
0.00100218
0.001002879
0.001003584
0.001004001
0.001004658
0.001005523
0.001006525
0.001007101
0.001009545
0.001009879
0.001011088
0.001013891
0.001016092
0.001018152
0.0368053
0.001057113
0.001000883
0.001002441
0.001003523
0.001003507
0.00100459
0.00100504
0.001005556
0.001007081
0.001006642
0.001009376
0.001008764
0.001012847
0.001013079
0.001016189
0.001017632
0.001022155
0.0368053
0.001015195
0.001000856
0.001002257
0.00100316
0.001004311
0.001005527
0.001006312
0.00100711
0.00100812
0.001009072
0.001010314
0.001011469
0.001012258
0.001016615
0.001018621
0.001020251
0.001022365
0.0368053
0.001008137
0.001001643
0.001002018
0.001003315
0.001006403
0.001006764
0.001007652
0.001008933
0.001009189
0.001011346
0.001011712
0.001016175
0.001015118
0.001017293
0.001019998
0.001022642
0.001027489
0.0368053
0.001003953
0.001004426
0.001003162
0.001004801
0.001007472
0.001007925
0.001009155
0.001010306
0.00101094
0.001013657
0.001015279
0.001016495
0.001017866
0.001020262
0.001023962
0.001027266
0.001027925
0.0368053
0.001001853
0.001002989
0.001003239
0.001005055
0.001008128
0.00100896
0.001010582
0.00101223
0.001013301
0.001018172
0.001016675
0.001016884
0.001025569
0.001023842
0.001026841
0.001030505
0.001034897
0.0368053
0.001000845
0.001003426
0.001004267
0.001006335
0.001006935
0.001008786
0.001011153
0.001013564
0.001015631
0.001016593
0.001022926
0.001023658
0.001026846
0.001029218
0.001032405
0.001034318
0.001039114
0.0368053
0.001001543
0.001002537
0.001003766
0.001005718