/*--------------------------------*- C++ -*----------------------------------*\
| =========                 |                                                 |
| \\      /  F ield         | OpenFOAM: The Open Source CFD Toolbox           |
|  \\    /   O peration     | Version:  2206                                  |
|   \\  /    A nd           | Website:  www.openfoam.com                      |
|    \\/     M anipulation  |                                                 |
\*---------------------------------------------------------------------------*/
FoamFile
{
    version     2.0;
    format      ascii;
    arch        "LSB;label=32;scalar=64";
    class       volScalarField;
    location    "1.4";
    object      muI;
}
// * * * * * * * * * * * * * * * * * * * * * * * * * * * * * * * * * * * * * //

dimensions      [0 0 0 0 0 0 0];

internalField   nonuniform List<scalar> 
13078
(
0.6317059
0.6300025
0.6300005
0.6300003
0.6300002
0.6300001
0.6300001
0.6300027
0.6300008
0.6300005
0.6300003
0.6300002
0.6300001
0.6300001
0.6300007
0.6300004
0.6300003
0.6300002
0.6300001
0.6300001
0.6300001
0.6300003
0.6300002
0.6300002
0.6300001
0.6300001
0.6300001
0.6300001
0.6300001
0.6300001
0.6300001
0.6300001
0.6300001
0.6300001
0.6300001
0.6300001
0.6300001
0.6300001
0.6300001
0.6300001
0.6300001
0.6300001
0.6300001
0.63
0.63
0.63
0.63
0.63
0.63
0.6300001
0.63
0.63
0.63
0.63
0.63
0.63
0.63
0.63
0.63
0.63
0.63
0.63
0.63
0.63
0.63
0.63
0.63
0.63
0.63
0.63
0.63
0.63
0.63
0.63
0.63
0.63
0.63
0.63
0.63
0.63
0.63
0.63
0.63
0.63
0.63
0.63
0.63
0.63
0.63
0.63
0.63
0.63
0.63
0.63
0.63
0.63
0.63
0.63
0.63
0.63
0.63
0.63
0.63
0.63
0.63
0.63
0.63
0.63
0.63
0.63
0.63
0.63
0.63
0.63
0.63
0.63
0.63
0.63
0.63
0.63
0.63
0.63
0.63
0.63
0.63
0.63
0.63
0.63
0.63
0.63
0.63
0.63
0.63
0.63
0.63
0.63
0.63
0.63
0.63
0.63
0.63
0.63
0.63
0.63
0.63
0.63
0.63
0.63
0.63
0.63
0.63
0.63
0.63
0.63
0.63
0.63
0.63
0.63
0.63
0.63
0.63
0.63
0.63
0.63
0.63
0.63
0.63
0.63
0.63
0.63
0.63
0.63
0.63
0.63
0.63
0.63
0.63
0.63
0.63
0.63
0.63
0.6300001
0.63
0.63
0.63
0.63
0.63
0.63
0.6300001
0.63
0.63
0.63
0.63
0.63
0.6300001
0.6300001
0.63
0.63
0.63
0.63
0.63
0.6300001
0.6300001
0.63
0.63
0.63
0.63
0.6300001
0.6300001
0.6300001
0.63
0.63
0.63
0.63
0.6300001
0.6300001
0.6300001
0.63
0.63
0.63
0.6300001
0.6300001
0.6300001
0.6300001
0.63
0.63
0.6300001
0.6300001
0.6300001
0.6300001
0.6300001
0.63
0.6300001
0.6300001
0.6300001
0.6300001
0.6300001
0.6300001
0.6300001
0.6300001
0.6300001
0.6300001
0.6300001
0.6300001
0.6300002
0.6300001
0.6300001
0.6300001
0.6300001
0.6300001
0.6300001
0.6300002
0.6300001
0.6300001
0.6300001
0.6300001
0.6300001
0.6300002
0.6300002
0.6300001
0.6300001
0.6300001
0.6300001
0.6300001
0.6300002
0.6300002
0.6300001
0.6300001
0.6300001
0.6300001
0.6300001
0.6300002
0.6300002
0.6300001
0.6300001
0.6300001
0.6300001
0.6300001
0.6300002
0.6300002
0.6300002
0.6300001
0.6300001
0.6300001
0.6300001
0.6300001
0.6300002
0.6300002
0.6300002
0.6300001
0.6300001
0.6300001
0.6300001
0.6300002
0.6300002
0.6300002
0.6300001
0.6300001
0.6300001
0.6300002
0.6300005
0.6300002
0.6300002
0.6300001
0.6300001
0.6300002
0.6300005
0.6300042
0.6300002
0.6300002
0.6300002
0.6300003
0.6300005
0.6300037
0.6300159
0.6300002
0.6300002
0.6300003
0.6300005
0.6300028
0.630013
0.6300242
0.6300002
0.6300003
0.6300005
0.6300019
0.6300098
0.6300205
0.6300224
0.6300003
0.6300004
0.6300012
0.6300061
0.6300169
0.6300211
0.6300195
0.6300004
0.6300007
0.6300032
0.6300115
0.6300189
0.6300185
0.630018
0.6300005
0.6300015
0.6300065
0.6300151
0.6300182
0.6300169
0.6300179
0.6300007
0.6300029
0.6300098
0.6300165
0.6300168
0.6300163
0.6300189
0.6300011
0.6300046
0.6300123
0.6300164
0.6300157
0.6300162
0.6300195
0.6300015
0.6300061
0.6300131
0.6300158
0.630015
0.6300161
0.6300202
0.6300019
0.6300072
0.6300137
0.6300153
0.6300145
0.6300163
0.6300209
0.6300024
0.6300081
0.630014
0.6300149
0.6300141
0.6300165
0.6300219
0.6300026
0.6300086
0.6300141
0.6300146
0.630014
0.6300167
0.6300224
0.6300026
0.6300086
0.6300141
0.6300146
0.630014
0.6300166
0.6300222
0.6300023
0.630008
0.630014
0.630015
0.6300142
0.6300165
0.6300215
0.6300018
0.630007
0.6300137
0.6300155
0.6300147
0.6300164
0.6300207
0.6300014
0.6300057
0.630013
0.6300161
0.6300153
0.6300165
0.6300203
0.630001
0.6300041
0.6300118
0.6300167
0.6300162
0.6300167
0.6300197
0.6300006
0.6300024
0.6300089
0.6300163
0.6300174
0.630017
0.6300194
0.6300005
0.6300012
0.6300053
0.6300141
0.6300187
0.6300182
0.6300193
0.6300003
0.6300006
0.6300023
0.6300096
0.6300185
0.63002
0.6300202
0.6300003
0.6300004
0.6300008
0.6300041
0.6300145
0.6300217
0.6300217
0.6300002
0.6300003
0.6300004
0.6300011
0.6300066
0.6300182
0.6300235
0.6300002
0.6300002
0.6300002
0.6300004
0.6300014
0.6300089
0.6300216
0.6300002
0.6300002
0.6300002
0.6300002
0.6300004
0.6300017
0.6300109
0.6300002
0.6300002
0.6300001
0.6300001
0.6300002
0.6300004
0.6300018
0.6300002
0.6300002
0.6300001
0.6300001
0.6300001
0.6300002
0.6300004
0.6300002
0.6300001
0.6300001
0.6300001
0.6300001
0.6300001
0.6300002
0.6300001
0.6300001
0.6300001
0.6300001
0.6300001
0.6300001
0.6300002
0.6300001
0.6300001
0.6300001
0.6300001
0.6300001
0.6300002
0.6300002
0.6300001
0.6300001
0.6300001
0.6300001
0.6300001
0.6300002
0.6300002
0.6300001
0.6300001
0.6300001
0.6300001
0.6300001
0.6300002
0.6300002
0.6300001
0.6300001
0.6300001
0.6300001
0.6300001
0.6300002
0.6300002
0.6300001
0.6300001
0.6300001
0.6300001
0.6300001
0.6300001
0.6300002
0.63
0.6300001
0.6300001
0.6300001
0.6300001
0.6300001
0.6300001
0.63
0.6300001
0.6300001
0.6300001
0.6300001
0.6300001
0.6300001
0.63
0.63
0.6300001
0.6300001
0.6300001
0.6300001
0.6300001
0.63
0.63
0.63
0.6300001
0.6300001
0.6300001
0.6300001
0.63
0.63
0.63
0.6300001
0.6300001
0.6300001
0.6300001
0.63
0.63
0.63
0.63
0.6300001
0.6300001
0.6300001
0.63
0.63
0.63
0.63
0.63
0.6300001
0.6300001
0.63
0.63
0.63
0.63
0.63
0.6300001
0.6300001
0.63
0.63
0.63
0.63
0.63
0.63
0.6300001
0.63
0.63
0.63
0.63
0.63
0.63
0.6300001
0.63
0.63
0.63
0.63
0.63
0.63
0.63
0.63
0.63
0.63
0.63
0.63
0.63
0.63
0.63
0.63
0.63
0.63
0.63
0.63
0.63
0.63
0.63
0.63
0.63
0.63
0.63
0.63
0.63
0.63
0.63
0.63
0.63
0.63
0.63
0.63
0.63
0.63
0.63
0.63
0.63
0.63
0.63
0.63
0.63
0.63
0.63
0.63
0.63
0.63
0.63
0.63
0.63
0.63
0.63
0.63
0.63
0.63
0.63
0.63
0.63
0.63
0.63
0.63
0.63
0.63
0.63
0.63
0.63
0.63
0.63
0.63
0.63
0.63
0.63
0.63
0.63
0.63
0.63
0.63
0.63
0.63
0.63
0.63
0.63
0.63
0.63
0.63
0.63
0.63
0.63
0.63
0.63
0.63
0.63
0.63
0.63
0.63
0.63
0.63
0.63
0.63
0.63
0.63
0.63
0.63
0.63
0.63
0.63
0.63
0.63
0.63
0.63
0.63
0.63
0.63
0.63
0.63
0.63
0.63
0.63
0.63
0.63
0.63
0.63
0.63
0.6300001
0.63
0.63
0.63
0.63
0.63
0.63
0.6300001
0.63
0.63
0.63
0.63
0.63
0.63
0.6300001
0.6300001
0.6300001
0.6300001
0.6300001
0.6300001
0.6300001
0.6300001
0.6300001
0.6300001
0.6300001
0.6300001
0.6300001
0.6300001
0.6300003
0.6300002
0.6300002
0.6300001
0.6300001
0.6300001
0.6300001
0.6300007
0.6300004
0.6300003
0.6300002
0.6300001
0.6300001
0.6300001
0.6300027
0.6300008
0.6300005
0.6300003
0.6300002
0.6300001
0.6300001
0.6300001
0.6300001
0.6300001
0.6300001
0.63
0.63
0.6300001
0.6300001
0.6300001
0.6300001
0.6300001
0.63
0.63
0.6300001
0.6300001
0.6300001
0.6300001
0.63
0.63
0.63
0.6300001
0.6300001
0.6300001
0.6300001
0.63
0.63
0.63
0.6300001
0.6300001
0.6300001
0.6300001
0.63
0.63
0.63
0.6300001
0.6300001
0.6300001
0.6300001
0.63
0.63
0.63
0.6300001
0.6300001
0.6300001
0.63
0.63
0.63
0.63
0.6300001
0.63
0.63
0.63
0.63
0.63
0.63
0.6300001
0.63
0.63
0.63
0.63
0.63
0.63
0.6300001
0.63
0.63
0.63
0.63
0.63
0.63
0.6300001
0.63
0.63
0.63
0.63
0.63
0.63
0.6300001
0.63
0.63
0.63
0.63
0.63
0.63
0.6300001
0.63
0.63
0.63
0.63
0.63
0.63
0.6300001
0.63
0.63
0.63
0.63
0.63
0.63
0.6300001
0.63
0.63
0.63
0.63
0.63
0.63
0.6300001
0.63
0.63
0.63
0.63
0.63
0.63
0.6300001
0.63
0.63
0.63
0.63
0.63
0.63
0.6300001
0.63
0.63
0.63
0.63
0.63
0.63
0.6300001
0.63
0.63
0.63
0.63
0.63
0.63
0.6300001
0.63
0.6300001
0.63
0.63
0.63
0.63
0.6300001
0.63
0.6300001
0.6300001
0.63
0.63
0.63
0.6300001
0.6300001
0.6300001
0.6300001
0.63
0.63
0.63
0.6300001
0.6300001
0.6300001
0.6300001
0.63
0.63
0.6300001
0.6300001
0.6300001
0.6300001
0.6300001
0.6300001
0.63
0.6300001
0.6300001
0.6300001
0.6300001
0.6300001
0.6300001
0.6300001
0.6300001
0.6300001
0.6300001
0.6300001
0.6300001
0.6300001
0.6300001
0.6300001
0.6300001
0.6300001
0.6300001
0.6300001
0.6300001
0.6300001
0.6300001
0.6300001
0.6300001
0.6300001
0.6300001
0.6300001
0.6300001
0.6300001
0.6300002
0.6300001
0.6300001
0.6300001
0.6300001
0.6300001
0.6300001
0.6300002
0.6300001
0.6300001
0.6300001
0.6300001
0.6300001
0.6300001
0.6300002
0.6300001
0.6300001
0.6300001
0.6300001
0.6300001
0.6300001
0.6300002
0.6300001
0.6300001
0.6300001
0.6300001
0.6300001
0.6300001
0.6300002
0.6300001
0.6300001
0.6300001
0.6300001
0.6300001
0.6300001
0.6300002
0.6300001
0.6300001
0.6300001
0.6300001
0.6300001
0.6300001
0.6300001
0.6300002
0.6300002
0.6300001
0.6300001
0.6300001
0.6300001
0.6300001
0.6300002
0.6300002
0.6300002
0.6300002
0.6300002
0.6300001
0.6300092
0.6300003
0.6300003
0.6300003
0.6300003
0.6300003
0.6300003
0.6300003
0.6300003
0.6300004
0.6300003
0.6300003
0.6300005
0.630001
0.6300027
0.6300003
0.6300004
0.6300005
0.6300005
0.6300008
0.6300033
0.6300191
0.6300003
0.6300004
0.6300006
0.6300011
0.630004
0.6300151
0.6300456
0.6300002
0.6300003
0.6300016
0.6300107
0.6300182
0.6300188
0.6300326
0.6300006
0.6300013
0.6300152
0.6300269
0.630024
0.6300216
0.6300169
0.6300055
0.6300124
0.6300285
0.6300278
0.6300277
0.6300177
0.6300284
0.6300185
0.6300247
0.6300296
0.6300315
0.6300358
0.6300273
0.6300307
0.6300259
0.630025
0.6300296
0.6300369
0.630041
0.6300358
0.6300345
0.6300253
0.6300239
0.6300321
0.6300373
0.6300466
0.6300403
0.6300273
0.6300219
0.6300219
0.6300309
0.630039
0.6300485
0.630037
0.6300222
0.6300206
0.630022
0.6300295
0.630038
0.6300494
0.6300341
0.630032
0.6300208
0.6300222
0.63003
0.630039
0.6300487
0.6300416
0.6300485
0.6300224
0.6300241
0.6300317
0.630038
0.6300493
0.6300494
0.6300402
0.6300236
0.6300252
0.6300293
0.6300359
0.6300446
0.6300451
0.630041
0.6300242
0.6300251
0.6300285
0.6300362
0.6300473
0.6300473
0.6300532
0.630025
0.6300261
0.6300326
0.6300437
0.6300554
0.6300558
0.630049
0.630027
0.6300306
0.6300415
0.6300495
0.6300622
0.6300694
0.6300566
0.630029
0.6300355
0.6300456
0.6300582
0.630084
0.630102
0.6300655
0.6300298
0.6300375
0.6300469
0.6300696
0.6301008
0.6301213
0.6300294
0.6300371
0.6300465
0.6300699
0.6301029
0.6301236
0.6300278
0.6300355
0.6300434
0.630057
0.630079
0.6301146
0.6300257
0.6300312
0.6300385
0.6300456
0.6300637
0.630072
0.6300676
0.6300243
0.6300271
0.6300313
0.6300409
0.6300568
0.6300513
0.6300311
0.630024
0.6300265
0.6300286
0.6300347
0.6300508
0.6300545
0.6300522
0.6300238
0.6300279
0.6300289
0.6300339
0.6300464
0.6300424
0.6300419
0.630024
0.6300286
0.6300306
0.6300358
0.6300494
0.6300482
0.6300354
0.6300237
0.6300288
0.6300322
0.6300368
0.630049
0.6300511
0.6300395
0.6300234
0.6300292
0.6300335
0.630039
0.6300501
0.6300464
0.6300422
0.6300238
0.6300286
0.6300339
0.6300404
0.6300469
0.6300424
0.6300298
0.6300255
0.6300279
0.6300336
0.630038
0.6300411
0.6300318
0.6300274
0.6300236
0.630029
0.6300291
0.6300356
0.6300341
0.6300341
0.6300069
0.6300128
0.6300287
0.6300271
0.6300293
0.6300329
0.6300372
0.6300523
0.6300022
0.630014
0.6300271
0.6300245
0.6300275
0.630026
0.6300437
0.6300003
0.6300016
0.630015
0.6300249
0.630022
0.63002
0.6300181
0.6300002
0.6300003
0.6300016
0.6300123
0.6300199
0.6300183
0.6300166
0.6300003
0.6300004
0.6300006
0.6300015
0.630006
0.630013
0.6300358
0.6300003
0.6300004
0.6300005
0.6300006
0.6300009
0.6300035
0.6300203
0.6300003
0.6300003
0.6300004
0.6300004
0.6300005
0.6300011
0.6300034
0.6300002
0.6300003
0.6300003
0.6300003
0.6300003
0.6300004
0.6300005
0.6300002
0.6300002
0.6300002
0.6300002
0.6300002
0.6300002
0.6300007
0.6300002
0.6300002
0.6300002
0.6300001
0.6300001
0.6300001
0.6300003
0.6300001
0.6300002
0.6300001
0.6300001
0.6300001
0.6300001
0.6300001
0.6300001
0.6300001
0.6300001
0.6300001
0.6300001
0.6300001
0.6300007
0.6300001
0.6300001
0.6300001
0.6300001
0.6300001
0.6300001
0.6300002
0.6300001
0.6300001
0.6300001
0.6300001
0.6300001
0.6300001
0.6300002
0.6300001
0.6300001
0.6300001
0.6300001
0.6300001
0.6300001
0.6300002
0.6300001
0.6300001
0.6300001
0.6300001
0.6300001
0.6300001
0.6300002
0.6300001
0.6300001
0.6300001
0.6300001
0.6300001
0.6300001
0.6300002
0.6300001
0.6300001
0.6300001
0.6300001
0.6300001
0.6300001
0.6300002
0.6300001
0.6300001
0.6300001
0.6300001
0.6300001
0.6300001
0.6300001
0.6300001
0.6300001
0.6300001
0.6300001
0.6300001
0.6300001
0.6300001
0.6300001
0.6300001
0.6300001
0.6300001
0.6300001
0.6300001
0.6300001
0.6300001
0.6300001
0.6300001
0.6300001
0.6300001
0.6300001
0.6300001
0.6300001
0.6300001
0.6300001
0.6300001
0.63
0.63
0.6300001
0.63
0.6300001
0.6300001
0.6300001
0.63
0.63
0.6300001
0.63
0.6300001
0.63
0.63
0.63
0.63
0.6300001
0.63
0.63
0.63
0.63
0.63
0.63
0.6300001
0.63
0.63
0.63
0.63
0.63
0.63
0.6300001
0.63
0.63
0.63
0.63
0.63
0.63
0.6300001
0.63
0.63
0.63
0.63
0.63
0.63
0.6300001
0.63
0.63
0.63
0.63
0.63
0.63
0.6300001
0.63
0.63
0.63
0.63
0.63
0.63
0.63
0.63
0.63
0.63
0.63
0.63
0.63
0.6300001
0.63
0.63
0.63
0.63
0.63
0.63
0.6300001
0.63
0.63
0.63
0.63
0.63
0.63
0.6300001
0.63
0.63
0.63
0.63
0.63
0.63
0.6300001
0.63
0.63
0.63
0.63
0.63
0.63
0.6300001
0.63
0.63
0.63
0.63
0.63
0.63
0.6300001
0.63
0.63
0.63
0.63
0.63
0.63
0.6300001
0.6300001
0.6300001
0.63
0.63
0.63
0.63
0.6300001
0.6300001
0.6300001
0.6300001
0.63
0.63
0.63
0.6300001
0.6300001
0.6300001
0.6300001
0.6300001
0.63
0.63
0.6300001
0.6300001
0.6300001
0.6300001
0.6300001
0.63
0.63
0.6300001
0.6300001
0.6300001
0.6300001
0.6300001
0.63
0.63
0.6300001
0.6300001
0.6300001
0.6300001
0.6300001
0.63
0.63
0.6300001
1.123371
1.056544
0.9450336
0.8153128
0.7428231
0.7012815
0.67592
0.656567
0.6466826
0.6441632
0.6437118
0.6435502
0.6435194
0.6435669
0.6436911
0.6438116
0.6439632
0.6441406
1.122845
0.9129868
0.8806494
0.8043522
0.7430921
0.6997563
0.6725865
0.6553894
0.6479682
0.6458707
0.6453279
0.6450285
0.6448716
0.6448054
0.6448443
0.6448877
0.6449677
0.6450615
1.122628
0.8574764
0.7990431
0.761595
0.7200762
0.6868561
0.6649183
0.6531555
0.6487427
0.6472255
0.6469233
0.6464997
0.6462431
0.6460776
0.646037
0.6459865
0.6459943
0.6460248
1.122599
0.794606
0.7704794
0.7356442
0.7026429
0.6760928
0.6597074
0.6527873
0.6492575
0.6479854
0.6484245
0.6479706
0.64763
0.6473839
0.647239
0.6471381
0.6470698
0.6470306
1.122593
0.7739169
0.7421621
0.7220732
0.6977062
0.6755886
0.6594718
0.6523413
0.6494571
0.6484484
0.649629
0.6494496
0.6490356
0.6487179
0.6483841
0.6483633
0.6481802
0.6480745
1.122589
0.7806066
0.7189127
0.7129872
0.6945918
0.6755901
0.6596564
0.6518471
0.649534
0.6488898
0.6503857
0.650957
0.650452
0.6500783
0.6497323
0.6496092
0.649328
0.649163
1.122583
0.7900945
0.7007915
0.7046325
0.6926011
0.6761917
0.66047
0.6516216
0.6495414
0.6493745
0.6508146
0.6523654
0.6518802
0.6514498
0.6510129
0.6508753
0.650518
0.6502885
1.122575
0.7967791
0.6906335
0.6966431
0.6903537
0.6765013
0.6614192
0.6517137
0.6495015
0.6496874
0.6511341
0.6534799
0.6533451
0.6528707
0.6523337
0.6522191
0.6517505
0.6514564
1.122565
0.8024018
0.6843619
0.6907238
0.6875196
0.6761309
0.6621548
0.6521245
0.6494713
0.6499716
0.6515041
0.6543847
0.6548531
0.6543236
0.6537144
0.6535974
0.6530322
0.6526652
1.122554
0.8099238
0.678559
0.6863723
0.6840949
0.6749344
0.6625083
0.6527372
0.6496326
0.6502877
0.6520166
0.6554423
0.6563788
0.6558216
0.6551274
0.6550155
0.6543625
0.6539323
1.122542
0.8273801
0.6810811
0.6831239
0.6803528
0.6729435
0.6621956
0.6534308
0.6504686
0.6512768
0.6531985
0.6567236
0.6579911
0.657391
0.6565991
0.6565155
0.6557541
0.6552518
1.122535
0.8748088
0.727143
0.6888248
0.6781508
0.6703857
0.6611898
0.6540311
0.6518334
0.6529262
0.6547446
0.6577818
0.6596724
0.6590144
0.6581424
0.6580701
0.6572087
0.6566362
1.122548
0.9469198
0.8345434
0.7576727
0.6838189
0.6672845
0.6593884
0.6543945
0.6533647
0.654609
0.6559696
0.6586634
0.6613478
0.6607212
0.6597555
0.6597367
0.6587351
0.6580906
1.122667
1.032536
0.9130878
0.8225454
0.7392795
0.6633368
0.6568825
0.6545454
0.654672
0.656019
0.6570689
0.6597098
0.6629148
0.6625415
0.6614643
0.6614925
0.6603545
0.6596316
1.122907
0.9998452
0.9120246
0.8452201
0.7838535
0.6938597
0.6552412
0.6550508
0.6559628
0.6574781
0.6585269
0.6609156
0.664492
0.6645084
0.6633055
0.6633444
0.6620833
0.661269
1.12313
0.9933579
0.9038009
0.8501079
0.8033516
0.735559
0.6655383
0.6569218
0.6579385
0.6595454
0.6604893
0.6627774
0.6661104
0.6666216
0.6652738
0.6653275
0.6639224
0.6630122
1.123162
0.9890754
0.9134641
0.8511552
0.8126287
0.7546004
0.6934559
0.6627473
0.6610981
0.6623175
0.6630444
0.6648008
0.6677494
0.6688577
0.6673886
0.6674559
0.6658826
0.6648786
1.123122
0.9608029
0.9040523
0.8516235
0.8127777
0.762748
0.7104366
0.6754472
0.6653576
0.6655921
0.6657076
0.6671191
0.6699453
0.6711677
0.6696682
0.6697373
0.667994
0.6668701
1.123089
0.9412399
0.8843213
0.8515451
0.806414
0.7626734
0.7195168
0.6902759
0.6702355
0.6691351
0.6687749
0.6700409
0.6721635
0.6738276
0.6721674
0.6722462
0.670246
0.6690115
1.123065
0.9309362
0.8740548
0.8419833
0.8117947
0.7427868
0.7264578
0.7014643
0.6755424
0.6728654
0.6721481
0.6728874
0.6754385
0.6764984
0.6749782
0.6748893
0.6727319
0.671332
1.123045
0.9268196
0.8688534
0.8391896
0.8030879
0.7475622
0.7159497
0.7104099
0.6803208
0.6763798
0.6755761
0.6765392
0.6786172
0.679381
0.6788752
0.6766399
0.6753503
0.6738222
1.123027
0.921996
0.8659023
0.8410471
0.7949529
0.7299048
0.732653
0.7026836
0.685549
0.6800191
0.6792389
0.6803927
0.6814675
0.6827674
0.6815923
0.6801497
0.6781718
0.6765075
1.123008
0.9196684
0.8672927
0.8442612
0.7831392
0.7190024
0.7284662
0.7143863
0.6817086
0.6844317
0.6832503
0.6839525
0.6855515
0.6863509
0.6851461
0.6832636
0.6813036
0.6793515
1.122985
0.9164019
0.8680407
0.8468444
0.7706872
0.7147094
0.7269227
0.7113335
0.6899349
0.6848896
0.6879316
0.6879525
0.6901027
0.6903172
0.6888963
0.6867331
0.6846812
0.682523
1.122956
0.910724
0.869008
0.8490919
0.7619918
0.7196513
0.7241429
0.7089365
0.6918274
0.6913063
0.6914502
0.6933323
0.6946138
0.6943702
0.6919048
0.690444
0.6883605
0.6859464
1.122926
0.9067269
0.8723047
0.85029
0.7615776
0.7303592
0.7196276
0.7079036
0.6944477
0.6959616
0.6976369
0.6988076
0.700172
0.6999461
0.6993337
0.6952717
0.6924121
0.6896951
1.12289
0.9037426
0.8774013
0.8490108
0.7676322
0.7448941
0.7195543
0.7099678
0.6978372
0.7011522
0.704016
0.705296
0.7064572
0.7031571
0.7029343
0.6990847
0.6965748
0.693889
1.12285
0.9016832
0.8843933
0.8432519
0.7778484
0.7615684
0.7300385
0.7111502
0.7017022
0.7069253
0.7107171
0.7122726
0.7129375
0.7095283
0.7091655
0.7045652
0.7013175
0.6982997
1.122806
0.8979293
0.8922689
0.8324706
0.7931524
0.7808199
0.7416819
0.712499
0.7054725
0.7136232
0.7183446
0.719594
0.7200498
0.7158191
0.7150418
0.7100169
0.7065116
0.7019977
1.122756
0.8941697
0.9009593
0.8295398
0.8278277
0.8040131
0.7534592
0.710516
0.7150187
0.7224805
0.7269642
0.7274466
0.7283103
0.7241987
0.7203827
0.7160675
0.7120588
0.7094405
1.122699
0.8855747
0.9192716
0.8923582
0.8599968
0.818082
0.7593621
0.7077453
0.7490099
0.7353836
0.7359734
0.737167
0.7358415
0.7320613
0.7278368
0.7226909
0.7182963
0.713473
1.122635
0.870743
0.9277007
0.8945036
0.8972271
0.8124586
0.7630247
0.7212881
0.7235532
0.7363609
0.7429608
0.7469867
0.7448981
0.7415478
0.7354035
0.7300571
0.7249185
0.7178325
1.122566
0.8781462
0.9294337
0.9763845
0.8734819
0.8313352
0.7794784
0.7329194
0.7408578
0.7481088
0.7551211
0.758
0.7548232
0.7490253
0.7437952
0.7381256
0.7335526
0.7286945
1.122457
0.9703808
0.9277559
0.9785145
0.9145424
0.8234559
0.7939056
0.744078
0.7689429
0.7633973
0.7710969
0.7711466
0.7668652
0.7596231
0.7527667
0.7470832
0.7434678
0.7325219
1.122215
0.9001405
0.9034352
0.9609112
0.9845064
0.8673528
0.8217338
0.7758155
0.7996564
0.7645594
0.7900638
0.7881455
0.7784971
0.773133
0.7634508
0.7550282
0.7408167
0.7424085
1.121831
0.9949152
0.9896871
0.993879
0.9428015
0.8294959
0.7984122
0.8769185
0.7997521
0.8067504
0.8116179
0.8042128
0.789575
0.781804
0.7738617
0.7677801
0.7613065
0.753637
1.121519
1.053175
1.027941
0.9957091
0.9427968
0.8698332
0.8446388
0.8593021
0.8297616
0.8335115
0.8265754
0.8201542
0.8104212
0.7962791
0.7861587
0.7822908
0.766595
0.7583048
1.119473
1.092764
1.029946
0.9473431
0.9388458
0.9137921
0.8869109
0.882934
0.8621905
0.8562193
0.8439348
0.8310771
0.8114729
0.8066114
0.7988041
0.7862716
0.7789733
0.7692545
1.117809
1.108911
0.9842672
1.011825
0.979889
0.9401606
0.9182374
0.9050756
0.8913964
0.8768953
0.8606146
0.8414246
0.8292891
0.8186913
0.8081041
0.7922542
0.7890344
0.7793355
1.118186
1.081327
1.087165
1.037059
0.9829998
0.9493959
0.9422239
0.9265511
0.9110137
0.8923999
0.8761573
0.8553036
0.8444508
0.8317965
0.8124484
0.8151797
0.8012766
0.7902432
0.6519199
1.112572
1.046928
1.047215
1.002374
0.9695267
0.9632792
0.9433254
0.9237149
0.9070017
0.8913415
0.878718
0.8593213
0.8467015
0.8296018
0.823111
0.8081286
0.7989017
0.635786
1.118738
1.029551
1.028079
1.001246
0.986874
0.9798363
0.9558067
0.9373173
0.9219049
0.9056583
0.8770908
0.8726396
0.8630085
0.8499165
0.8329943
0.8185529
0.8109041
0.6302433
1.122274
1.066041
1.049957
1.014788
1.006143
0.9827266
0.9659849
0.9531888
0.9359534
0.9276632
0.9062889
0.8937855
0.8808553
0.8570849
0.8449928
0.836278
0.8085968
0.6301007
1.122053
1.061899
1.063543
1.039444
1.010382
0.9943534
0.9796084
0.9671143
0.9523642
0.9287844
0.916266
0.9229372
0.8766662
0.8767749
0.8645005
0.8344199
0.8279338
0.6300528
1.122839
1.058009
1.080263
1.052149
1.016772
1.011854
0.9959595
0.9827156
0.9773387
0.9492781
0.947243
0.930487
0.9020683
0.8988414
0.8650057
0.8522413
0.8458986
0.6300329
1.123243
1.093035
1.087607
1.061836
1.033613
1.026741
1.012183
0.9986677
0.992587
0.9699419
0.9634427
0.9263704
0.9219154
0.9089125
0.8883127
0.8697018
0.8403035
0.630092
1.123188
1.111209
1.073278
1.068345
1.056244
1.037791
1.026803
1.013113
1.009336
0.9824877
0.9802955
0.951627
0.9545873
0.912551
0.8979838
0.8871507
0.8693005
0.6329952
1.108456
1.095651
1.092054
1.071692
1.063054
1.049343
1.041069
1.034418
1.019072
1.007279
0.9913309
0.9888194
0.9433869
0.9344286
0.9167729
0.8893465
0.8724966
0.6306964
1.108206
1.092361
1.092816
1.081883
1.06607
1.06025
1.056241
1.050035
1.043492
1.023899
1.012596
0.9838151
0.965829
0.9603755
0.9149964
0.9082891
0.8806774
0.6301799
1.11551
1.113699
1.098124
1.060803
1.024805
1.042247
1.016451
0.9979517
0.998739
0.955729
0.9475916
0.9151048
0.8990266
0.6302851
0.6307995
1.045983
1.030944
1.025632
0.992174
0.9771955
0.9481703
0.9278377
0.8987177
0.630113
1.05801
1.030822
1.001585
0.9848724
0.9630471
0.9282476
0.9038477
1.045473
1.020307
0.9897952
0.9726647
0.9374446
0.9179386
1.023197
1.005657
0.9729758
0.946644
0.9208284
1.025086
1.009236
0.9791386
0.9426844
0.9189746
1.035977
1.006339
0.9716979
0.9480482
0.9196865
1.035847
1.00289
0.9738062
0.9447854
0.9167174
1.027835
0.9921858
0.9673017
0.9436363
0.912514
1.02057
0.9968316
0.9625478
0.9350351
0.91027
1.041037
0.9916373
0.9719802
0.9683336
0.9210896
0.9035147
0.6300958
1.021196
0.9938038
0.9757863
0.9472957
0.9159056
0.8855275
0.6301798
0.6304428
1.024503
1.002627
0.9895813
0.9627844
0.9249825
0.9048387
0.8791469
0.6300229
1.120389
1.115545
1.050344
1.019894
1.018575
0.9913186
0.9759515
0.9349231
0.9160032
0.8850943
0.8695066
0.6305875
1.105042
1.078899
1.096088
1.082733
1.066758
1.055741
1.048111
1.039071
1.031441
0.9936028
0.9917381
0.9667075
0.951191
0.9258324
0.8792825
0.8844664
0.8510272
0.6323872
1.097293
1.060242
1.092891
1.072483
1.055755
1.039683
1.030541
1.016706
0.9994457
0.9807679
0.9706416
0.9321379
0.9274064
0.9111794
0.8786275
0.8572247
0.8398973
0.63259
1.116805
1.106748
1.066151
1.041037
1.041391
1.018108
1.008951
0.9988001
0.9709862
0.9786758
0.9345877
0.9437004
0.8899898
0.8873909
0.8563495
0.8440516
0.8121845
0.6301296
1.123078
1.106457
1.07061
1.049263
1.023934
0.9993714
0.9846183
0.970483
0.9537378
0.9390554
0.9214045
0.9063587
0.8967975
0.8525981
0.8362724
0.8245017
0.810915
0.6301429
1.123517
1.085899
1.076478
1.045718
0.9829658
0.9765122
0.9613382
0.9411447
0.9373298
0.9079067
0.9033568
0.8564812
0.8662954
0.8468372
0.82625
0.8092599
0.7842481
0.6300607
1.122349
1.021512
1.049205
1.013768
0.9643332
0.9568717
0.9378345
0.9215143
0.9130996
0.8811019
0.8647544
0.8536467
0.8421684
0.8244256
0.8017446
0.7852571
0.7823129
0.6301089
1.121883
1.053196
1.047448
1.008654
0.9536093
0.9407385
0.9177954
0.8971193
0.8849467
0.8397411
0.8520751
0.8502771
0.7933427
0.8024029
0.7872075
0.7717323
0.7565948
0.6303305
1.121833
1.043221
1.024864
0.9842012
0.9735158
0.9433595
0.910348
0.8820945
0.8614378
0.8527884
0.8075917
0.8034254
0.7871863
0.7768305
0.7647826
0.7584132
0.7447108
0.6395872
1.115168
1.063832
1.035662
0.9956987
0.9595256
0.948673
0.9089383
0.8713224
0.8445131
0.8326167
0.7854633
0.7881249
0.8005796
0.7467674
0.7470958
0.7381002
0.7341638
0.6660264
1.109047
1.075981
1.053809
1.004846
0.956315
0.939067
0.9046772
0.8675466
0.8312238
0.8075249
0.7773374
0.7609236
0.7609213
0.727059
0.7352478
0.7263654
0.7222484
1.117343
1.108513
1.06004
1.015951
0.9809353
0.9465505
0.9296053
0.8987716
0.8646725
0.8238996
0.7931577
0.7647574
0.7478316
0.7334196
0.748121
0.7113815
0.7181055
0.7152321
1.116727
1.112635
1.035897
1.002375
0.9673128
0.9367899
0.9162479
0.8894107
0.8564505
0.8171021
0.7815263
0.7607575
0.7293335
0.7197549
0.7225708
0.7185648
0.7116947
0.7059071
1.120983
1.090922
1.050476
0.9802648
0.9481074
0.9177323
0.8978351
0.8740565
0.8406311
0.8060336
0.7695327
0.7515141
0.7280901
0.7176024
0.7092511
0.6948695
0.7043346
0.6970147
1.121203
1.066731
1.038667
0.9892699
0.9580536
0.8861671
0.8872353
0.8376403
0.8275929
0.7943666
0.7605653
0.7352364
0.7143821
0.6996038
0.696129
0.6989657
0.6887498
0.6887153
1.121913
1.062016
1.009025
0.9854983
0.9957888
0.7857878
0.8368701
0.8805827
0.7824221
0.7868736
0.7532538
0.7241764
0.695622
0.6982908
0.688582
0.6913294
0.6831111
0.6775286
1.122202
1.057338
0.9108487
1.009402
0.9779329
0.8115337
0.859954
0.8301198
0.7944885
0.7553115
0.7356768
0.7115868
0.6976755
0.6811675
0.677917
0.675659
0.6702842
0.6790763
1.122517
1.055136
0.948573
1.003292
0.9129594
0.8234256
0.8299551
0.8035535
0.7821849
0.7485965
0.7212924
0.7006424
0.6876251
0.6739951
0.6703776
0.6690985
0.6748346
0.6646555
1.12258
1.027815
0.9557461
0.9617866
0.8327468
0.8287811
0.8074829
0.7949925
0.779055
0.7341439
0.7104903
0.6910191
0.6798281
0.6692421
0.6649789
0.6637085
0.6657503
0.6610012
1.122646
1.002952
0.9317422
0.8420188
0.8994849
0.806474
0.7793501
0.781444
0.7349562
0.7297879
0.7016945
0.6831362
0.6712892
0.6627165
0.6592715
0.6585116
0.658267
0.6610616
1.122707
0.9923909
0.9033637
0.8370452
0.8833854
0.7665337
0.7553514
0.7630024
0.7182678
0.7208426
0.6940955
0.6765887
0.6663331
0.6585666
0.6545444
0.6541898
0.6536794
0.6565759
1.122761
0.9824823
0.8648808
0.7660884
0.8341051
0.7777221
0.753284
0.7436991
0.7182424
0.7019568
0.6833207
0.6697093
0.6605304
0.6537702
0.6511992
0.650528
0.6510939
0.6545098
1.122808
0.9759844
0.8467423
0.7954215
0.7802544
0.7687771
0.7468197
0.7289189
0.7114698
0.6894035
0.6739269
0.6638082
0.6564603
0.6520134
0.6467418
0.6468348
0.6475316
0.6470193
1.12285
0.9703657
0.8413983
0.7996455
0.7699392
0.7544307
0.7350892
0.7158273
0.6995794
0.6786291
0.6664849
0.6592264
0.6531285
0.6473321
0.6437135
0.6441777
0.6449122
0.6454791
1.122888
0.965464
0.8408838
0.7988509
0.7688142
0.7411256
0.7227138
0.7023095
0.6858867
0.668631
0.6608623
0.6558692
0.6507331
0.6431245
0.6401002
0.6421187
0.6427475
0.6436685
1.122924
0.9613887
0.8447973
0.799365
0.7664646
0.7329079
0.7108155
0.6881325
0.6714757
0.6598262
0.6555374
0.6556646
0.6480221
0.6426751
0.6392475
0.6398262
0.6408196
0.6418971
1.122951
0.9597413
0.8458473
0.8004337
0.7626301
0.7311023
0.7001382
0.6731343
0.6570426
0.6514108
0.6584702
0.6526991
0.6451379
0.6384484
0.6364084
0.6381465
0.6392512
0.6403122
1.122979
0.9533478
0.8497364
0.8035787
0.7593922
0.7278098
0.6904518
0.6599857
0.6451602
0.6568803
0.6547934
0.6502222
0.6428492
0.6365739
0.6357834
0.6367562
0.6379899
0.6391213
1.123001
0.9527562
0.8531305
0.8065847
0.758145
0.7217578
0.6895856
0.6633765
0.6519311
0.6520209
0.6526842
0.648051
0.6412619
0.6351697
0.6348944
0.6357234
0.6370063
0.6381579
1.123018
0.9489461
0.8552467
0.8102734
0.7592526
0.7203557
0.6937924
0.6657321
0.6439428
0.6504015
0.6509774
0.6464588
0.6400861
0.6343208
0.6344053
0.6351027
0.6363818
0.637459
1.123031
0.9443322
0.8596526
0.8154296
0.7634722
0.7165411
0.6966497
0.6669165
0.6431773
0.6496253
0.6497278
0.645201
0.6391019
0.6338916
0.6332357
0.6345998
0.635963
0.6370474
1.123047
0.9421437
0.8684444
0.8233379
0.755181
0.731686
0.6927493
0.6654647
0.6431605
0.6492707
0.6487318
0.6440698
0.6382369
0.6339119
0.6335301
0.6343715
0.635689
0.6367852
1.123068
0.942384
0.8815044
0.8132079
0.7886244
0.7163347
0.6935128
0.6588851
0.6438755
0.6493851
0.6478001
0.6429127
0.6374214
0.6340557
0.6334503
0.6349356
0.6357357
0.6367092
1.123093
0.9519357
0.8776045
0.8587689
0.7665364
0.7175126
0.6894916
0.6503518
0.64711
0.6500568
0.6469126
0.6417743
0.6366051
0.6342732
0.6340406
0.6353523
0.6359177
0.6367604
1.123135
0.9714795
0.9300313
0.8337095
0.7626511
0.7134611
0.6789006
0.6378731
0.6502957
0.6502201
0.6458092
0.6405903
0.6361424
0.634693
0.634602
0.635707
0.6361605
0.6368908
1.123091
0.983236
0.9036972
0.8220842
0.7511653
0.7078342
0.6598194
0.6440147
0.6537851
0.6497759
0.6445992
0.6395794
0.6359073
0.635004
0.6350743
0.63604
0.6364187
0.6370766
1.122967
0.9754211
0.903306
0.807525
0.7466719
0.6943921
0.6472284
0.6527818
0.6556351
0.6487908
0.6431902
0.6384747
0.6358128
0.6353611
0.6354529
0.6363529
0.6366938
0.6372784
1.122774
0.9424993
0.879494
0.7898352
0.7305704
0.6750054
0.6615091
0.660099
0.656512
0.6471829
0.6414962
0.6374188
0.6357829
0.6356219
0.6357553
0.6366913
0.6369383
0.6375108
1.122556
0.8654082
0.8169063
0.7461003
0.7032494
0.679596
0.6713224
0.6653402
0.6563037
0.6449578
0.6396354
0.6365328
0.6355535
0.6358645
0.6360723
0.636915