/*--------------------------------*- C++ -*----------------------------------*\
| =========                 |                                                 |
| \\      /  F ield         | OpenFOAM: The Open Source CFD Toolbox           |
|  \\    /   O peration     | Version:  2206                                  |
|   \\  /    A nd           | Website:  www.openfoam.com                      |
|    \\/     M anipulation  |                                                 |
\*---------------------------------------------------------------------------*/
FoamFile
{
    version     2.0;
    format      ascii;
    arch        "LSB;label=32;scalar=64";
    class       volScalarField;
    location    "1.4";
    object      nuEffb;
}
// * * * * * * * * * * * * * * * * * * * * * * * * * * * * * * * * * * * * * //

dimensions      [0 2 -1 0 0 0 0];

internalField   nonuniform List<scalar> 
13078
(
1.038738e-05
3.810812e-05
5.197142e-05
5.192812e-05
5.112382e-05
5.018102e-05
4.911837e-05
4.031859e-05
5.231398e-05
5.286146e-05
5.204274e-05
5.11674e-05
5.02095e-05
4.914353e-05
5.419849e-05
5.389422e-05
5.302694e-05
5.214203e-05
5.123081e-05
5.025133e-05
4.917647e-05
5.494532e-05
5.399665e-05
5.310731e-05
5.222173e-05
5.128966e-05
5.029459e-05
4.921193e-05
5.496199e-05
5.403073e-05
5.315512e-05
5.226272e-05
5.133668e-05
5.033487e-05
4.924653e-05
5.492239e-05
5.403011e-05
5.317502e-05
5.22874e-05
5.135868e-05
5.036837e-05
4.927914e-05
5.488558e-05
5.401869e-05
5.318334e-05
5.230356e-05
5.137346e-05
5.038193e-05
4.930733e-05
5.485992e-05
5.400573e-05
5.318639e-05
5.231172e-05
5.138178e-05
5.039102e-05
4.931678e-05
5.484208e-05
5.399462e-05
5.318327e-05
5.231346e-05
5.138611e-05
5.039701e-05
4.932349e-05
5.482953e-05
5.398592e-05
5.317942e-05
5.231342e-05
5.138841e-05
5.040098e-05
4.932843e-05
5.482046e-05
5.397921e-05
5.317596e-05
5.231264e-05
5.138963e-05
5.040381e-05
4.933246e-05
5.481337e-05
5.397433e-05
5.31731e-05
5.231168e-05
5.139034e-05
5.040603e-05
4.933577e-05
5.4808e-05
5.397041e-05
5.317076e-05
5.231091e-05
5.139084e-05
5.040786e-05
4.933874e-05
5.480361e-05
5.396736e-05
5.316899e-05
5.231059e-05
5.139175e-05
5.040965e-05
4.93416e-05
5.480007e-05
5.396497e-05
5.316794e-05
5.231544e-05
5.139961e-05
5.041215e-05
4.934438e-05
5.479708e-05
5.396311e-05
5.316743e-05
5.232171e-05
5.140566e-05
5.041445e-05
4.934736e-05
5.479438e-05
5.396135e-05
5.316671e-05
5.232255e-05
5.140725e-05
5.04166e-05
4.935046e-05
5.479186e-05
5.395995e-05
5.316623e-05
5.232326e-05
5.140886e-05
5.041891e-05
4.935373e-05
5.478946e-05
5.395868e-05
5.3166e-05
5.232409e-05
5.141088e-05
5.042201e-05
4.935713e-05
5.478709e-05
5.395765e-05
5.316607e-05
5.232575e-05
5.142039e-05
5.043541e-05
4.936183e-05
5.478477e-05
5.395652e-05
5.316619e-05
5.232763e-05
5.143165e-05
5.044605e-05
4.93667e-05
5.478216e-05
5.39554e-05
5.316619e-05
5.232888e-05
5.143524e-05
5.04503e-05
4.937116e-05
5.477942e-05
5.395426e-05
5.316637e-05
5.23305e-05
5.143823e-05
5.045509e-05
4.937704e-05
5.477634e-05
5.395285e-05
5.316646e-05
5.233225e-05
5.144247e-05
5.047011e-05
4.939765e-05
5.47728e-05
5.395128e-05
5.316639e-05
5.233412e-05
5.144694e-05
5.048749e-05
4.941411e-05
5.476877e-05
5.394931e-05
5.316632e-05
5.233602e-05
5.14508e-05
5.04949e-05
4.942244e-05
5.476381e-05
5.394676e-05
5.316586e-05
5.233783e-05
5.145488e-05
5.050145e-05
4.943163e-05
5.475808e-05
5.394369e-05
5.316502e-05
5.233949e-05
5.145935e-05
5.050931e-05
4.945523e-05
5.475131e-05
5.393978e-05
5.316358e-05
5.234095e-05
5.146386e-05
5.051767e-05
4.948179e-05
5.474533e-05
5.393711e-05
5.316211e-05
5.234206e-05
5.146803e-05
5.052487e-05
4.949463e-05
5.473774e-05
5.393268e-05
5.315923e-05
5.234246e-05
5.147199e-05
5.053224e-05
4.950684e-05
5.472644e-05
5.392894e-05
5.316163e-05
5.234311e-05
5.147521e-05
5.053931e-05
4.951899e-05
5.471263e-05
5.392404e-05
5.316623e-05
5.235241e-05
5.147921e-05
5.054595e-05
4.952908e-05
5.469631e-05
5.391454e-05
5.316775e-05
5.235543e-05
5.148184e-05
5.055185e-05
4.953854e-05
5.467791e-05
5.390285e-05
5.316322e-05
5.236353e-05
5.149753e-05
5.055915e-05
4.954705e-05
5.465758e-05
5.389054e-05
5.315755e-05
5.237314e-05
5.152032e-05
5.058425e-05
4.95572e-05
5.463639e-05
5.387878e-05
5.315239e-05
5.237631e-05
5.154041e-05
5.059841e-05
4.956588e-05
5.461656e-05
5.386974e-05
5.315045e-05
5.237918e-05
5.155e-05
5.062829e-05
4.959961e-05
5.460036e-05
5.386602e-05
5.315423e-05
5.238954e-05
5.156868e-05
5.06727e-05
4.963348e-05
5.459352e-05
5.387646e-05
5.317525e-05
5.242981e-05
5.163206e-05
5.075924e-05
4.972529e-05
5.460059e-05
5.392025e-05
5.326088e-05
5.254974e-05
5.179384e-05
5.091245e-05
4.978907e-05
5.464294e-05
5.403234e-05
5.34664e-05
5.283873e-05
5.205083e-05
5.099341e-05
4.969719e-05
5.475678e-05
5.428085e-05
5.382775e-05
5.318416e-05
5.219127e-05
5.091887e-05
4.933571e-05
5.49966e-05
5.465679e-05
5.419535e-05
5.332308e-05
5.212801e-05
5.064644e-05
4.896552e-05
5.537734e-05
5.50377e-05
5.432699e-05
5.328092e-05
5.195244e-05
5.03652e-05
4.937665e-05
5.582846e-05
5.521494e-05
5.429059e-05
5.320442e-05
5.184035e-05
5.08766e-05
5.064586e-05
5.624039e-05
5.517949e-05
5.424114e-05
5.31488e-05
5.227291e-05
5.211845e-05
5.2163e-05
5.649753e-05
5.513868e-05
5.43121e-05
5.342843e-05
5.327848e-05
5.356396e-05
5.349957e-05
5.658744e-05
5.515968e-05
5.44968e-05
5.409187e-05
5.449015e-05
5.479494e-05
5.451063e-05
5.659763e-05
5.523292e-05
5.481215e-05
5.491942e-05
5.562644e-05
5.582009e-05
5.523868e-05
5.662751e-05
5.543227e-05
5.519257e-05
5.569942e-05
5.649114e-05
5.650062e-05
5.599512e-05
5.67029e-05
5.569132e-05
5.57474e-05
5.648409e-05
5.720253e-05
5.702917e-05
5.659284e-05
5.675414e-05
5.591611e-05
5.620714e-05
5.693546e-05
5.755413e-05
5.724156e-05
5.675034e-05
5.675624e-05
5.60707e-05
5.652131e-05
5.727194e-05
5.776713e-05
5.730889e-05
5.658075e-05
5.675893e-05
5.617913e-05
5.673785e-05
5.750376e-05
5.789619e-05
5.737311e-05
5.651245e-05
5.680675e-05
5.626354e-05
5.688217e-05
5.765431e-05
5.7994e-05
5.744106e-05
5.652413e-05
5.683849e-05
5.628536e-05
5.689709e-05
5.766999e-05
5.801811e-05
5.747863e-05
5.657283e-05
5.685546e-05
5.624854e-05
5.679015e-05
5.756233e-05
5.798333e-05
5.749657e-05
5.667412e-05
5.691402e-05
5.616937e-05
5.658101e-05
5.733445e-05
5.785933e-05
5.744514e-05
5.677713e-05
5.696432e-05
5.601704e-05
5.622697e-05
5.693466e-05
5.756672e-05
5.727811e-05
5.68287e-05
5.695707e-05
5.579964e-05
5.572551e-05
5.639339e-05
5.710355e-05
5.693866e-05
5.648571e-05
5.691122e-05
5.556791e-05
5.519189e-05
5.559485e-05
5.635845e-05
5.637729e-05
5.584821e-05
5.689382e-05
5.541321e-05
5.486333e-05
5.479477e-05
5.540316e-05
5.560973e-05
5.50337e-05
5.687012e-05
5.537723e-05
5.462693e-05
5.402192e-05
5.4214e-05
5.450068e-05
5.425515e-05
5.673891e-05
5.537614e-05
5.451986e-05
5.349851e-05
5.305895e-05
5.320877e-05
5.319496e-05
5.642571e-05
5.540109e-05
5.44915e-05
5.337019e-05
5.227787e-05
5.179754e-05
5.17931e-05
5.596016e-05
5.540116e-05
5.453474e-05
5.349165e-05
5.206981e-05
5.081025e-05
5.03612e-05
5.546914e-05
5.516657e-05
5.452581e-05
5.354159e-05
5.227482e-05
5.065339e-05
4.933824e-05
5.506044e-05
5.474433e-05
5.432495e-05
5.352939e-05
5.242334e-05
5.104769e-05
4.921892e-05
5.479954e-05
5.434104e-05
5.390955e-05
5.331343e-05
5.240859e-05
5.121647e-05
4.971031e-05
5.46705e-05
5.407113e-05
5.352104e-05
5.291723e-05
5.217463e-05
5.118027e-05
4.994897e-05
5.461831e-05
5.394694e-05
5.329948e-05
5.260307e-05
5.185939e-05
5.099901e-05
4.992035e-05
5.460595e-05
5.389778e-05
5.320613e-05
5.246561e-05
5.167051e-05
5.080009e-05
4.977864e-05
5.461007e-05
5.388401e-05
5.317866e-05
5.24144e-05
5.159306e-05
5.070101e-05
4.966415e-05
5.4624e-05
5.388422e-05
5.316946e-05
5.240022e-05
5.156974e-05
5.064975e-05
4.96234e-05
5.464229e-05
5.38897e-05
5.316662e-05
5.239106e-05
5.154948e-05
5.061346e-05
4.958471e-05
5.466201e-05
5.389869e-05
5.316753e-05
5.238557e-05
5.152783e-05
5.059021e-05
4.957257e-05
5.468114e-05
5.390939e-05
5.317172e-05
5.237419e-05
5.150974e-05
5.057215e-05
4.956113e-05
5.469869e-05
5.391941e-05
5.317473e-05
5.23642e-05
5.149194e-05
5.056301e-05
4.955019e-05
5.471438e-05
5.392822e-05
5.317226e-05
5.235973e-05
5.148764e-05
5.055507e-05
4.953858e-05
5.472834e-05
5.393248e-05
5.316659e-05
5.234896e-05
5.148207e-05
5.054683e-05
4.952643e-05
5.473949e-05
5.393581e-05
5.31632e-05
5.234749e-05
5.147762e-05
5.053828e-05
4.951285e-05
5.474687e-05
5.393978e-05
5.316554e-05
5.234612e-05
5.147274e-05
5.052969e-05
4.949943e-05
5.475272e-05
5.394206e-05
5.316644e-05
5.234428e-05
5.146758e-05
5.052152e-05
4.948563e-05
5.475934e-05
5.394571e-05
5.316738e-05
5.234237e-05
5.146233e-05
5.051244e-05
4.945838e-05
5.476504e-05
5.394852e-05
5.316787e-05
5.234007e-05
5.145738e-05
5.050409e-05
4.943412e-05
5.476994e-05
5.395085e-05
5.316808e-05
5.233774e-05
5.145283e-05
5.049705e-05
4.942444e-05
5.477378e-05
5.395246e-05
5.316779e-05
5.233545e-05
5.144854e-05
5.048912e-05
4.941563e-05
5.477722e-05
5.395381e-05
5.316743e-05
5.233355e-05
5.144382e-05
5.047138e-05
4.939884e-05
5.478013e-05
5.395512e-05
5.316722e-05
5.233155e-05
5.143938e-05
5.045629e-05
4.937799e-05
5.478278e-05
5.395605e-05
5.316695e-05
5.232975e-05
5.143626e-05
5.045118e-05
4.937207e-05
5.478514e-05
5.395706e-05
5.316683e-05
5.232822e-05
5.143223e-05
5.044672e-05
4.93674e-05
5.478732e-05
5.395803e-05
5.316644e-05
5.232605e-05
5.142069e-05
5.043579e-05
4.936221e-05
5.478947e-05
5.395888e-05
5.316618e-05
5.232414e-05
5.141099e-05
5.042215e-05
4.935729e-05
5.479158e-05
5.395984e-05
5.316605e-05
5.23232e-05
5.14089e-05
5.041894e-05
4.935388e-05
5.479372e-05
5.396087e-05
5.316627e-05
5.232233e-05
5.14072e-05
5.04167e-05
4.935068e-05
5.479606e-05
5.396221e-05
5.316675e-05
5.232123e-05
5.140549e-05
5.041455e-05
4.934752e-05
5.479853e-05
5.396358e-05
5.316692e-05
5.231472e-05
5.139928e-05
5.041214e-05
4.934447e-05
5.48013e-05
5.396539e-05
5.316751e-05
5.230969e-05
5.139131e-05
5.040955e-05
4.934175e-05
5.480476e-05
5.39677e-05
5.316882e-05
5.230986e-05
5.13904e-05
5.040787e-05
4.933905e-05
5.480889e-05
5.397092e-05
5.317071e-05
5.231047e-05
5.138996e-05
5.040631e-05
4.933649e-05
5.481436e-05
5.397484e-05
5.317305e-05
5.231127e-05
5.138949e-05
5.04046e-05
4.933374e-05
5.482138e-05
5.397984e-05
5.317594e-05
5.231215e-05
5.138882e-05
5.040255e-05
4.933055e-05
5.483044e-05
5.398638e-05
5.317935e-05
5.231289e-05
5.138771e-05
5.039988e-05
4.932675e-05
5.484278e-05
5.399514e-05
5.318287e-05
5.231296e-05
5.138558e-05
5.039588e-05
4.932169e-05
5.486036e-05
5.400613e-05
5.318241e-05
5.230858e-05
5.138096e-05
5.038987e-05
4.931443e-05
5.488593e-05
5.401903e-05
5.318063e-05
5.22995e-05
5.137226e-05
5.03805e-05
4.928904e-05
5.492252e-05
5.403094e-05
5.317568e-05
5.228742e-05
5.135876e-05
5.035233e-05
4.92594e-05
5.496161e-05
5.403167e-05
5.315615e-05
5.226481e-05
5.132281e-05
5.031774e-05
4.922719e-05
5.494365e-05
5.399754e-05
5.311398e-05
5.221019e-05
5.127511e-05
5.027824e-05
4.91925e-05
5.42023e-05
5.391073e-05
5.30179e-05
5.213105e-05
5.121766e-05
5.023511e-05
4.915686e-05
4.054058e-05
5.248487e-05
5.29165e-05
5.203208e-05
5.11492e-05
5.018967e-05
4.912164e-05
4.791466e-05
4.647824e-05
4.467981e-05
4.308296e-05
4.048448e-05
3.693112e-05
3.062757e-05
4.794093e-05
4.650979e-05
4.471725e-05
4.312382e-05
4.052938e-05
3.698431e-05
3.084409e-05
4.797143e-05
4.654275e-05
4.4757e-05
4.259254e-05
4.057254e-05
3.7036e-05
3.096904e-05
4.800361e-05
4.657642e-05
4.479345e-05
4.32121e-05
4.061785e-05
3.708779e-05
3.108446e-05
4.803539e-05
4.661057e-05
4.483232e-05
4.325591e-05
4.066295e-05
3.713949e-05
3.11691e-05
4.806645e-05
4.664474e-05
4.487146e-05
4.329964e-05
4.070748e-05
3.71909e-05
3.125107e-05
4.809622e-05
4.667826e-05
4.491015e-05
4.334161e-05
4.071989e-05
3.724215e-05
3.133068e-05
4.812278e-05
4.671109e-05
4.494827e-05
4.338268e-05
4.073155e-05
3.729297e-05
3.140855e-05
4.813055e-05
4.674105e-05
4.498445e-05
4.342422e-05
4.076717e-05
3.733859e-05
3.148511e-05
4.813632e-05
4.674919e-05
4.501796e-05
4.346553e-05
4.080231e-05
3.738423e-05
3.156041e-05
4.814114e-05
4.675521e-05
4.502687e-05
4.350563e-05
4.083746e-05
3.742985e-05
3.163459e-05
4.814556e-05
4.676099e-05
4.503371e-05
4.351395e-05
4.087283e-05
3.747564e-05
3.170746e-05
4.814959e-05
4.676653e-05
4.504064e-05
4.352153e-05
4.087858e-05
3.752252e-05
3.177889e-05
4.815358e-05
4.677204e-05
4.50477e-05
4.352949e-05
4.088512e-05
3.753105e-05
3.184725e-05
4.815757e-05
4.677782e-05
4.505502e-05
4.353763e-05
4.08921e-05
3.754124e-05
3.182647e-05
4.816177e-05
4.678378e-05
4.506254e-05
4.354619e-05
4.089964e-05
3.755216e-05
3.181599e-05
4.816606e-05
4.678996e-05
4.507027e-05
4.355548e-05
4.091112e-05
3.756356e-05
3.181197e-05
4.817056e-05
4.679621e-05
4.507863e-05
4.356943e-05
4.101657e-05
3.757586e-05
3.179807e-05
4.817526e-05
4.680252e-05
4.508724e-05
4.357948e-05
4.103183e-05
3.758843e-05
3.17868e-05
4.818035e-05
4.680926e-05
4.509631e-05
4.359004e-05
4.104362e-05
3.760167e-05
3.177134e-05
4.818575e-05
4.681642e-05
4.510572e-05
4.36013e-05
4.105597e-05
3.761553e-05
3.174404e-05
4.819174e-05
4.682404e-05
4.51155e-05
4.361346e-05
4.106899e-05
3.763018e-05
3.172442e-05
4.819803e-05
4.683233e-05
4.51264e-05
4.362445e-05
4.10857e-05
3.764553e-05
3.170276e-05
4.820643e-05
4.684148e-05
4.513896e-05
4.309092e-05
4.11895e-05
3.767015e-05
3.168025e-05
4.821519e-05
4.685106e-05
4.515103e-05
4.364836e-05
4.124252e-05
3.769014e-05
3.165592e-05
4.822362e-05
4.686138e-05
4.516419e-05
4.366977e-05
4.126323e-05
3.770889e-05
3.162877e-05
4.823476e-05
4.687394e-05
4.517973e-05
4.368772e-05
4.128445e-05
3.77313e-05
3.159348e-05
4.826706e-05
4.68882e-05
4.519549e-05
4.370627e-05
4.131321e-05
3.791536e-05
3.155586e-05
4.828975e-05
4.72648e-05
4.565608e-05
4.372338e-05
4.134032e-05
3.798638e-05
3.152397e-05
4.8305e-05
4.728115e-05
4.56788e-05
4.374508e-05
4.136597e-05
3.801483e-05
3.148773e-05
4.834957e-05
4.733027e-05
4.569766e-05
4.376761e-05
4.139345e-05
3.815021e-05
3.145612e-05
4.837977e-05
4.737613e-05
4.571766e-05
4.379222e-05
4.142351e-05
3.830419e-05
3.142492e-05
4.839832e-05
4.744585e-05
4.574451e-05
4.381833e-05
4.145557e-05
3.834866e-05
3.140682e-05
4.841203e-05
4.747421e-05
4.581265e-05
4.38452e-05
4.1489e-05
3.840396e-05
3.19093e-05
4.842443e-05
4.749347e-05
4.588532e-05
4.387485e-05
4.152317e-05
3.845329e-05
3.198811e-05
4.843525e-05
4.751008e-05
4.598168e-05
4.391679e-05
4.155296e-05
3.849736e-05
3.422721e-05
4.844312e-05
4.752401e-05
4.60066e-05
4.401892e-05
4.157161e-05
3.854119e-05
3.295247e-05
4.845176e-05
4.753229e-05
4.602336e-05
4.409216e-05
4.154531e-05
3.849489e-05
3.413145e-05
4.845755e-05
4.752328e-05
4.598872e-05
4.403486e-05
4.13201e-05
3.802928e-05
3.4679e-05
4.843161e-05
4.743612e-05
4.572485e-05
4.35387e-05
4.098784e-05
3.802277e-05
3.452646e-05
4.825309e-05
4.71695e-05
4.506642e-05
4.312715e-05
4.164605e-05
3.904576e-05
3.424695e-05
4.788072e-05
4.662415e-05
4.483458e-05
4.397794e-05
4.242172e-05
3.986228e-05
3.46816e-05
4.740385e-05
4.639148e-05
4.577972e-05
4.501026e-05
4.29426e-05
4.02516e-05
3.499355e-05
4.762576e-05
4.711194e-05
4.654476e-05
4.555746e-05
4.37425e-05
4.060681e-05
3.558621e-05
4.880722e-05
4.810026e-05
4.74201e-05
4.603298e-05
4.411411e-05
4.085865e-05
3.606665e-05
5.013881e-05
4.88441e-05
4.800249e-05
4.674409e-05
4.442473e-05
4.185118e-05
3.673285e-05
5.13985e-05
4.986204e-05
4.897261e-05
4.713909e-05
4.550486e-05
4.221649e-05
3.914475e-05
5.226527e-05
5.08578e-05
4.935261e-05
4.775115e-05
4.518429e-05
4.327411e-05
4.012997e-05
5.33512e-05
5.166686e-05
5.015898e-05
4.793518e-05
4.510084e-05
4.230877e-05
3.96173e-05
5.427456e-05
5.284406e-05
5.101814e-05
4.848676e-05
4.553507e-05
4.232351e-05
4.00971e-05
5.510176e-05
5.401283e-05
5.245456e-05
4.964208e-05
4.620081e-05
4.295611e-05
4.054002e-05
5.573237e-05
5.493787e-05
5.302792e-05
5.037949e-05
4.717778e-05
4.408257e-05
4.132649e-05
5.583655e-05
5.540827e-05
5.300488e-05
5.045732e-05
4.775813e-05
4.485968e-05
4.22407e-05
5.574018e-05
5.502607e-05
5.312589e-05
5.120975e-05
4.833562e-05
4.574362e-05
4.204759e-05
5.580136e-05
5.494202e-05
5.344958e-05
5.140362e-05
4.91482e-05
4.918009e-05
4.918054e-05
5.590975e-05
5.498669e-05
5.361787e-05
5.188339e-05
5.027794e-05
4.886188e-05
5.594022e-05
5.501242e-05
5.362687e-05
5.199615e-05
5.036174e-05
4.914617e-05
5.595564e-05
5.50812e-05
5.351938e-05
5.151728e-05
4.978357e-05
4.795389e-05
5.602191e-05
5.513247e-05
5.313864e-05
5.12828e-05
4.836086e-05
4.680598e-05
4.474195e-05
5.597245e-05
5.533831e-05
5.291576e-05
5.016416e-05
4.753315e-05
4.4772e-05
4.196105e-05
5.559346e-05
5.519912e-05
5.265801e-05
4.978735e-05
4.656051e-05
4.378628e-05
4.101631e-05
5.493018e-05
5.457591e-05
5.226845e-05
4.991357e-05
4.69097e-05
4.398351e-05
4.12111e-05
5.416512e-05
5.381382e-05
5.157432e-05
4.940924e-05
4.687001e-05
4.339185e-05
4.092454e-05
5.320672e-05
5.284056e-05
5.093561e-05
4.917035e-05
4.611849e-05
4.333857e-05
4.135969e-05
5.205127e-05
5.18301e-05
5.007959e-05
4.796894e-05
4.615488e-05
4.303638e-05
3.867558e-05
5.112032e-05
5.06952e-05
4.892045e-05
4.772419e-05
4.522431e-05
4.268549e-05
3.808551e-05
4.997843e-05
4.966141e-05
4.826675e-05
4.673999e-05
4.496095e-05
4.096737e-05
3.641806e-05
4.859036e-05
4.859176e-05
4.729041e-05
4.617944e-05
4.387007e-05
4.046711e-05
3.503303e-05
4.762311e-05
4.716576e-05
4.650903e-05
4.497744e-05
4.307952e-05
3.99758e-05
3.546756e-05
4.763768e-05
4.614452e-05
4.567432e-05
4.434773e-05
4.221731e-05
3.921557e-05
3.418319e-05
4.821338e-05
4.636075e-05
4.475259e-05
4.365624e-05
4.17912e-05
3.935997e-05
3.495931e-05
4.845373e-05
4.703876e-05
4.487579e-05
4.286145e-05
4.128678e-05
3.917523e-05
3.446378e-05
4.851067e-05
4.737505e-05
4.555971e-05
4.318535e-05
4.084755e-05
3.824737e-05
3.391892e-05
4.849379e-05
4.750176e-05
4.592648e-05
4.38441e-05
4.102854e-05
3.77161e-05
3.458972e-05
4.84763e-05
4.752481e-05
4.603367e-05
4.410847e-05
4.140103e-05
3.82585e-05
3.495942e-05
4.846301e-05
4.751715e-05
4.603118e-05
4.405172e-05
4.157125e-05
3.859312e-05
3.385263e-05
4.845206e-05
4.750486e-05
4.601006e-05
4.398793e-05
4.157148e-05
3.853378e-05
3.308971e-05
4.843858e-05
4.74899e-05
4.595673e-05
4.390275e-05
4.1548e-05
3.848563e-05
3.214081e-05
4.842366e-05
4.747248e-05
4.586001e-05
4.386838e-05
4.151433e-05
3.843335e-05
3.193911e-05
4.840781e-05
4.74516e-05
4.57714e-05
4.383934e-05
4.147887e-05
3.838158e-05
3.176185e-05
4.838746e-05
4.739954e-05
4.573825e-05
4.381096e-05
4.144432e-05
3.832992e-05
3.140793e-05
4.835573e-05
4.734926e-05
4.571286e-05
4.378409e-05
4.141191e-05
3.826737e-05
3.143854e-05
4.830965e-05
4.728662e-05
4.5692e-05
4.37593e-05
4.138191e-05
3.804137e-05
3.146512e-05
4.829343e-05
4.726622e-05
4.56717e-05
4.373701e-05
4.135474e-05
3.800145e-05
3.15013e-05
4.826978e-05
4.689055e-05
4.519745e-05
4.371023e-05
4.132854e-05
3.797151e-05
3.153403e-05
4.823705e-05
4.687601e-05
4.518139e-05
4.369213e-05
4.129847e-05
3.780273e-05
3.156859e-05
4.822546e-05
4.686303e-05
4.516587e-05
4.367491e-05
4.127397e-05
3.771889e-05
3.160498e-05
4.821664e-05
4.685228e-05
4.515206e-05
4.365903e-05
4.125283e-05
3.769909e-05
3.163356e-05
4.82075e-05
4.684224e-05
4.513915e-05
4.364408e-05
4.122981e-05
3.768076e-05
3.166198e-05
4.819885e-05
4.683315e-05
4.512738e-05
4.36297e-05
4.112026e-05
3.765608e-05
3.168497e-05
4.819244e-05
4.682474e-05
4.511629e-05
4.361637e-05
4.10753e-05
3.763695e-05
3.170752e-05
4.81864e-05
4.68168e-05
4.510598e-05
4.360419e-05
4.106191e-05
3.762194e-05
3.173074e-05
4.818076e-05
4.680953e-05
4.509637e-05
4.359255e-05
4.104909e-05
3.760769e-05
3.174999e-05
4.817548e-05
4.680276e-05
4.508719e-05
4.358172e-05
4.10371e-05
3.759409e-05
3.176901e-05
4.817074e-05
4.679634e-05
4.507866e-05
4.357131e-05
4.102575e-05
3.758119e-05
3.178418e-05
4.816618e-05
4.679e-05
4.507031e-05
4.355893e-05
4.097047e-05
3.756865e-05
3.179582e-05
4.816187e-05
4.678381e-05
4.50625e-05
4.354767e-05
4.0903e-05
3.755682e-05
3.180699e-05
4.815777e-05
4.677799e-05
4.505509e-05
4.353861e-05
4.089539e-05
3.754559e-05
3.181714e-05
4.815392e-05
4.677242e-05
4.504797e-05
4.352983e-05
4.088813e-05
3.753497e-05
3.18263e-05
4.815015e-05
4.676713e-05
4.504106e-05
4.352154e-05
4.088146e-05
3.752511e-05
3.179774e-05
4.814646e-05
4.676188e-05
4.503444e-05
4.351336e-05
4.087507e-05
3.749756e-05
3.172694e-05
4.814259e-05
4.675652e-05
4.50279e-05
4.350536e-05
4.085479e-05
3.745177e-05
3.165468e-05
4.813849e-05
4.675104e-05
4.50193e-05
4.3481e-05
4.081993e-05
3.740603e-05
3.158102e-05
4.813366e-05
4.674363e-05
4.498629e-05
4.343968e-05
4.07849e-05
3.736046e-05
3.150638e-05
4.812708e-05
4.671462e-05
4.495084e-05
4.33979e-05
4.074988e-05
3.73148e-05
3.143071e-05
4.810212e-05
4.668278e-05
4.491338e-05
4.335575e-05
4.071633e-05
3.726677e-05
3.135409e-05
4.807397e-05
4.66502e-05
4.487525e-05
4.331561e-05
4.072865e-05
3.721571e-05
3.127625e-05
4.80444e-05
4.661668e-05
4.483661e-05
4.327283e-05
4.06856e-05
3.71645e-05
3.119683e-05
4.801334e-05
4.658242e-05
4.479757e-05
4.323018e-05
4.064111e-05
3.711319e-05
3.111523e-05
4.798075e-05
4.654778e-05
4.475841e-05
4.318746e-05
4.059644e-05
3.706167e-05
3.10203e-05
4.794812e-05
4.651356e-05
4.471941e-05
4.314547e-05
4.055163e-05
3.701001e-05
3.089925e-05
4.791606e-05
4.647894e-05
4.468053e-05
4.310404e-05
4.050681e-05
3.695791e-05
3.074024e-05
1.012722e-06
1e-06
1e-06
1e-06
1e-06
1e-06
1e-06
1e-06
1e-06
1e-06
1e-06
1e-06
1e-06
1e-06
1e-06
1e-06
1e-06
1e-06
1.029535e-06
1e-06
1e-06
1e-06
1e-06
1e-06
1e-06
1e-06
1e-06
1e-06
1e-06
1e-06
1e-06
1e-06
1e-06
1e-06
1e-06
1e-06
1.03139e-06
1e-06
1e-06
1e-06
1e-06
1e-06
1e-06
1e-06
1e-06
1e-06
1e-06
1e-06
1e-06
1e-06
1e-06
1e-06
1e-06
1e-06
1.03368e-06
1e-06
1e-06
1e-06
1e-06
1e-06
1e-06
1e-06
1e-06
1e-06
1e-06
1e-06
1e-06
1e-06
1e-06
1e-06
1e-06
1e-06
1.036624e-06
1e-06
1e-06
1e-06
1e-06
1e-06
1e-06
1e-06
1e-06
1e-06
1e-06
1e-06
1e-06
1e-06
1e-06
1e-06
1e-06
1e-06
1.040191e-06
1e-06
1e-06
1e-06
1e-06
1e-06
1e-06
1e-06
1e-06
1e-06
1e-06
1e-06
1e-06
1e-06
1e-06
1e-06
1e-06
1e-06
1.044328e-06
1e-06
1e-06
1e-06
1e-06
1e-06
1e-06
1e-06
1e-06
1e-06
1e-06
1e-06
1e-06
1e-06
1e-06
1e-06
1e-06
1e-06
1.048988e-06
1e-06
1e-06
1e-06
1e-06
1e-06
1e-06
1e-06
1e-06
1e-06
1e-06
1e-06
1e-06
1e-06
1e-06
1e-06
1e-06
1e-06
1.054136e-06
1e-06
1e-06
1e-06
1e-06
1e-06
1e-06
1e-06
1e-06
1e-06
1e-06
1e-06
1e-06
1e-06
1e-06
1e-06
1e-06
1e-06
1.059737e-06
1e-06
1e-06
1e-06
1e-06
1e-06
1e-06
1e-06
1e-06
1e-06
1e-06
1e-06
1e-06
1e-06
1e-06
1e-06
1e-06
1e-06
1.065769e-06
1e-06
1e-06
1e-06
1e-06
1e-06
1e-06
1e-06
1e-06
1e-06
1e-06
1e-06
1e-06
1e-06
1e-06
1e-06
1e-06
1e-06
1.072221e-06
1e-06
1e-06
1e-06
1e-06
1e-06
1e-06
1e-06
1e-06
1e-06
1e-06
1e-06
1e-06
1e-06
1e-06
1e-06
1e-06
1e-06
1.079079e-06
1e-06
1e-06
1e-06
1e-06
1e-06
1e-06
1e-06
1e-06
1e-06
1e-06
1e-06
1e-06
1e-06
1e-06
1e-06
1e-06
1e-06
1.086843e-06
1e-06
1e-06
1e-06
1e-06
1e-06
1e-06
1e-06
1e-06
1e-06
1e-06
1e-06
1e-06
1e-06
1e-06
1e-06
1e-06
1e-06
1.113144e-06
1e-06
1e-06
1e-06
1e-06
1e-06
1e-06
1e-06
1e-06
1e-06
1e-06
1e-06
1e-06
1e-06
1e-06
1e-06
1e-06
1e-06
1.114408e-06
1e-06
1e-06
1e-06
1e-06
1e-06
1e-06
1e-06
1e-06
1e-06
1e-06
1e-06
1e-06
1e-06
1e-06
1e-06
1e-06
1e-06
1.120175e-06
1e-06
1e-06
1e-06
1e-06
1e-06
1e-06
1e-06
1e-06
1e-06
1e-06
1e-06
1e-06
1e-06
1e-06
1e-06
1e-06
1e-06
1.128291e-06
1e-06
1e-06
1e-06
1e-06
1e-06
1e-06
1e-06
1e-06
1e-06
1e-06
1e-06
1e-06
1e-06
1e-06
1e-06
1e-06
1e-06
1.137255e-06
1e-06
1e-06
1e-06
1e-06
1e-06
1e-06
1e-06
1e-06
1e-06
1e-06
1e-06
1e-06
1e-06
1e-06
1e-06
1e-06
1e-06
1.146218e-06
1e-06
1e-06
1e-06
1e-06
1e-06
1e-06
1e-06
1e-06
1e-06
1e-06
1e-06
1e-06
1e-06
1e-06
1e-06
1e-06
1e-06
1.155148e-06
1e-06
1e-06
1e-06
1e-06
1e-06
1e-06
1e-06
1e-06
1e-06
1e-06
1e-06
1e-06
1e-06
1e-06
1e-06
1e-06
1e-06
1.164413e-06
1e-06
1e-06
1e-06
1e-06
1e-06
1e-06
1e-06
1e-06
1e-06
1e-06
1e-06
1e-06
1e-06
1e-06
1e-06
1e-06
1e-06
1.17427e-06
1e-06
1e-06
1e-06
1e-06
1e-06
1e-06
1e-06
1e-06
1e-06
1e-06
1e-06
1e-06
1e-06
1e-06
1e-06
1e-06
1e-06
1.184686e-06
1e-06
1e-06
1e-06
1e-06
1e-06
1e-06
1e-06
1e-06
1e-06
1e-06
1e-06
1e-06
1e-06
1e-06
1e-06
1e-06
1e-06
1.19598e-06
1.000001e-06
1e-06
1e-06
1e-06
1e-06
1e-06
1e-06
1e-06
1e-06
1e-06
1e-06
1e-06
1e-06
1e-06
1e-06
1e-06
1e-06
1.207724e-06
1.000001e-06
1e-06
1e-06
1e-06
1e-06
1e-06
1e-06
1e-06
1e-06
1e-06
1e-06
1e-06
1e-06
1e-06
1e-06
1e-06
1e-06
1.22041e-06
1.000001e-06
1e-06
1e-06
1e-06
1e-06
1e-06
1e-06
1e-06
1e-06
1e-06
1e-06
1e-06
1e-06
1e-06
1e-06
1e-06
1e-06
1.234036e-06
1.000001e-06
1e-06
1e-06
1e-06
1e-06
1e-06
1e-06
1e-06
1e-06
1e-06
1e-06
1e-06
1e-06
1e-06
1e-06
1e-06
1e-06
1.248376e-06
1.000001e-06
1e-06
1e-06
1e-06
1e-06
1e-06
1e-06
1e-06
1e-06
1e-06
1e-06
1e-06
1e-06
1e-06
1e-06
1e-06
1e-06
1.264059e-06
1.000002e-06
1e-06
1e-06
1e-06
1e-06
1e-06
1e-06
1e-06
1e-06
1e-06
1e-06
1e-06
1e-06
1e-06
1e-06
1e-06
1e-06
1.280712e-06
1.000002e-06
1e-06
1e-06
1e-06
1e-06
1e-06
1e-06
1e-06
1e-06
1e-06
1e-06
1e-06
1e-06
1e-06
1e-06
1e-06
1e-06
1.298386e-06
1.000002e-06
1e-06
1e-06
1e-06
1e-06
1e-06
1e-06
1e-06
1e-06
1e-06
1e-06
1e-06
1e-06
1e-06
1e-06
1e-06
1e-06
1.317811e-06
1.000003e-06
1e-06
1e-06
1e-06
1e-06
1e-06
1e-06
1e-06
1e-06
1e-06
1e-06
1e-06
1e-06
1e-06
1e-06
1e-06
1e-06
1.340345e-06
1.000002e-06
1e-06
1e-06
1e-06
1e-06
1e-06
1e-06
1e-06
1e-06
1e-06
1e-06
1e-06
1e-06
1e-06
1e-06
1e-06
1e-06
1.412241e-06
1.000005e-06
1e-06
1e-06
1e-06
1e-06
1e-06
1e-06
1e-06
1e-06
1e-06
1e-06
1e-06
1e-06
1e-06
1e-06
1e-06
1e-06
1.450333e-06
1.000007e-06
1e-06
1e-06
1e-06
1e-06
1e-06
1e-06
1e-06
1e-06
1e-06
1e-06
1e-06
1e-06
1e-06
1e-06
1e-06
1e-06
1.508666e-06
1.000007e-06
1e-06
1e-06
1e-06
1e-06
1e-06
1e-06
1e-06
1e-06
1e-06
1e-06
1e-06
1e-06
1e-06
1e-06
1e-06
1e-06
2.247867e-06
1.000012e-06
1e-06
1e-06
1e-06
1e-06
1e-06
1e-06
1e-06
1e-06
1e-06
1e-06
1e-06
1e-06
1e-06
1e-06
1e-06
1e-06
4.294116e-06
1.000021e-06
1e-06
1e-06
1e-06
1e-06
1e-06
1e-06
1e-06
1e-06
1e-06
1e-06
1e-06
1e-06
1e-06
1e-06
1e-06
1e-06
8.729876e-06
1.000028e-06
1e-06
1e-06
1e-06
1e-06
1e-06
1e-06
1e-06
1e-06
1e-06
1e-06
1e-06
1e-06
1e-06
1e-06
1e-06
1e-06
1.536466e-05
1.001923e-06
1e-06
1e-06
1e-06
1e-06
1e-06
1e-06
1e-06
1e-06
1e-06
1e-06
1e-06
1e-06
1e-06
1e-06
1e-06
1e-06
1.87611e-05
1.000693e-06
1e-06
1e-06
1e-06
1e-06
1e-06
1e-06
1e-06
1e-06
1e-06
1e-06
1e-06
1e-06
1e-06
1e-06
1e-06
1e-06
2.125786e-05
1e-06
1e-06
1e-06
1e-06
1e-06
1e-06
1e-06
1e-06
1e-06
1e-06
1e-06
1e-06
1e-06
1e-06
1e-06
1e-06
1e-06
2.474072e-05
1.001005e-06
1e-06
1e-06
1e-06
1e-06
1e-06
1e-06
1e-06
1e-06
1e-06
1e-06
1e-06
1e-06
1e-06
1e-06
1e-06
1e-06
2.862127e-05
1.004277e-06
1e-06
1e-06
1e-06
1e-06
1e-06
1e-06
1e-06
1e-06
1e-06
1e-06
1e-06
1e-06
1e-06
1e-06
1e-06
1e-06
3.110724e-05
1.011375e-06
1e-06
1e-06
1e-06
1e-06
1e-06
1e-06
1e-06
1e-06
1e-06
1e-06
1e-06
1e-06
1e-06
1e-06
1e-06
1e-06
2.947136e-05
1.023853e-06
1.000006e-06
1e-06
1e-06
1e-06
1e-06
1e-06
1e-06
1e-06
1e-06
1e-06
1e-06
1e-06
1e-06
1e-06
1e-06
1e-06
2.977519e-05
1.166633e-06
1.000142e-06
1e-06
1e-06
1e-06
1e-06
1e-06
1e-06
1e-06
1e-06
1e-06
1e-06
1e-06
1e-06
1e-06
1e-06
1e-06
3.162556e-05
1.448046e-06
1.001506e-06
1.000006e-06
1e-06
1e-06
1e-06
1e-06
1e-06
1e-06
1e-06
1e-06
1e-06
1e-06
1e-06
1e-06
1e-06
1e-06
3.094201e-05
2.163583e-06
1.007097e-06
1.000148e-06
1e-06
1e-06
1e-06
1e-06
1e-06
1e-06
1e-06
1e-06
1e-06
1e-06
3.071728e-05
2.997539e-05
1e-06
1e-06
1e-06
1e-06
1e-06
1e-06
1e-06
1e-06
3.521713e-05
1e-06
1e-06
1e-06
1e-06
1e-06
1e-06
1e-06
1e-06
1e-06
1e-06
1e-06
1e-06
1e-06
1e-06
1e-06
1e-06
1e-06
1e-06
1e-06
1e-06
1e-06
1e-06
1e-06
1e-06
1e-06
1e-06
1e-06
1e-06
1e-06
1e-06
1e-06
1e-06
1e-06
1e-06
1e-06
1e-06
1e-06
1e-06
1e-06
1e-06
1e-06
1e-06
1e-06
1e-06
1e-06
1e-06
1e-06
1e-06
1e-06
3.493018e-05
1e-06
1e-06
1e-06
1e-06
1e-06
1e-06
3.254712e-05
2.979111e-05
1e-06
1e-06
1e-06
1e-06
1e-06
1e-06
1e-06
3.633527e-05
3.338717e-06
1.010903e-06
1e-06
1e-06
1e-06
1e-06
1e-06
1e-06
1e-06
1e-06
1e-06
2.975244e-05
1.608078e-06
1.002984e-06
1.00002e-06
1e-06
1e-06
1e-06
1e-06
1e-06
1e-06
1e-06
1e-06
1e-06
1e-06
1e-06
1e-06
1e-06
1e-06
3.000284e-05
1.322397e-06
1.000567e-06
1.000001e-06
1e-06
1e-06
1e-06
1e-06
1e-06
1e-06
1e-06
1e-06
1e-06
1e-06
1e-06
1e-06
1e-06
1e-06
2.79548e-05
1.080258e-06
1.000055e-06
1e-06
1e-06
1e-06
1e-06
1e-06
1e-06
1e-06
1e-06
1e-06
1e-06
1e-06
1e-06
1e-06
1e-06
1e-06
2.81997e-05
1.020996e-06
1.000002e-06
1e-06
1e-06
1e-06
1e-06
1e-06
1e-06
1e-06
1e-06
1e-06
1e-06
1e-06
1e-06
1e-06
1e-06
1e-06
2.735783e-05
1.011088e-06
1e-06
1e-06
1e-06
1e-06
1e-06
1e-06
1e-06
1e-06
1e-06
1e-06
1e-06
1e-06
1e-06
1e-06
1e-06
1e-06
2.785951e-05
1.005157e-06
1e-06
1e-06
1e-06
1e-06
1e-06
1e-06
1e-06
1e-06
1e-06
1e-06
1e-06
1e-06
1e-06
1e-06
1e-06
1e-06
2.475605e-05
1.00219e-06
1e-06
1e-06
1e-06
1e-06
1e-06
1e-06
1e-06
1e-06
1e-06
1e-06
1e-06
1e-06
1e-06
1e-06
1e-06
1e-06
2.067031e-05
1.000775e-06
1e-06
1e-06
1e-06
1e-06
1e-06
1e-06
1e-06
1e-06
1e-06
1e-06
1e-06
1e-06
1e-06
1e-06
1e-06
1e-06
1.751834e-05
1.001414e-06
1e-06
1e-06
1e-06
1e-06
1e-06
1e-06
1e-06
1e-06
1e-06
1e-06
1e-06
1e-06
1e-06
1e-06
1e-06
1e-06
1.400516e-05
1.002023e-06
1e-06
1e-06
1e-06
1e-06
1e-06
1e-06
1e-06
1e-06
1e-06
1e-06
1e-06
1e-06
1e-06
1e-06
1e-06
1e-06
6.548176e-06
1.000051e-06
1e-06
1e-06
1e-06
1e-06
1e-06
1e-06
1e-06
1e-06
1e-06
1e-06
1e-06
1e-06
1e-06
1e-06
1e-06
1e-06
4.531477e-06
1e-06
1e-06
1e-06
1e-06
1e-06
1e-06
1e-06
1e-06
1e-06
1e-06
1e-06
1e-06
1e-06
1e-06
1e-06
1e-06
1e-06
1.681094e-06
1.000007e-06
1e-06
1e-06
1e-06
1e-06
1e-06
1e-06
1e-06
1e-06
1e-06
1e-06
1e-06
1e-06
1e-06
1e-06
1e-06
1e-06
1.556731e-06
1.000008e-06
1e-06
1e-06
1e-06
1e-06
1e-06
1e-06
1e-06
1e-06
1e-06
1e-06
1e-06
1e-06
1e-06
1e-06
1e-06
1e-06
1.467567e-06
1.000006e-06
1e-06
1e-06
1e-06
1e-06
1e-06
1e-06
1e-06
1e-06
1e-06
1e-06
1e-06
1e-06
1e-06
1e-06
1e-06
1e-06
1.390628e-06
1.000005e-06
1e-06
1e-06
1e-06
1e-06
1e-06
1e-06
1e-06
1e-06
1e-06
1e-06
1e-06
1e-06
1e-06
1e-06
1e-06
1e-06
1.329377e-06
1.000002e-06
1e-06
1e-06
1e-06
1e-06
1e-06
1e-06
1e-06
1e-06
1e-06
1e-06
1e-06
1e-06
1e-06
1e-06
1e-06
1e-06
1.308817e-06
1.000002e-06
1e-06
1e-06
1e-06
1e-06
1e-06
1e-06
1e-06
1e-06
1e-06
1e-06
1e-06
1e-06
1e-06
1e-06
1e-06
1e-06
1.290324e-06
1.000002e-06
1e-06
1e-06
1e-06
1e-06
1e-06
1e-06
1e-06
1e-06
1e-06
1e-06
1e-06
1e-06
1e-06
1e-06
1e-06
1e-06
1.272912e-06
1.000002e-06
1e-06