/*--------------------------------*- C++ -*----------------------------------*\
| =========                 |                                                 |
| \\      /  F ield         | OpenFOAM: The Open Source CFD Toolbox           |
|  \\    /   O peration     | Version:  2206                                  |
|   \\  /    A nd           | Website:  www.openfoam.com                      |
|    \\/     M anipulation  |                                                 |
\*---------------------------------------------------------------------------*/
FoamFile
{
    version     2.0;
    format      ascii;
    arch        "LSB;label=32;scalar=64";
    class       volScalarField;
    location    "1.4";
    object      nuFra;
}
// * * * * * * * * * * * * * * * * * * * * * * * * * * * * * * * * * * * * * //

dimensions      [0 2 -1 0 0 0 0];

internalField   nonuniform List<scalar> 
13078
(
4.426564e-05
8.205496
89.1928
100
100
100
100
8.858734
63.16043
100
100
100
100
100
79.6955
100
100
100
100
100
100
100
100
100
100
100
100
100
100
100
100
100
100
100
100
100
100
100
100
100
100
100
100
100
100
100
100
100
100
100
100
100
100
100
100
100
100
100
100
100
100
100
100
100
100
100
100
100
100
100
100
100
100
100
100
100
100
100
100
100
100
100
100
100
100
100
100
100
100
100
100
100
100
100
100
100
100
100
100
100
100
100
100
100
100
100
100
100
100
100
100
100
100
100
100
100
100
100
100
100
100
100
100
100
100
100
100
100
100
100
100
100
100
100
100
100
100
100
100
100
100
100
100
100
100
100
100
100
100
100
100
100
100
100
100
100
100
100
100
100
100
100
100
100
100
100
100
100
100
100
100
100
100
100
100
100
100
100
100
100
100
100
100
100
100
100
100
100
100
100
100
100
100
100
100
100
100
100
100
100
100
100
100
100
100
100
100
100
100
100
100
100
100
100
100
100
100
100
100
100
100
100
100
100
100
100
100
100
100
100
100
100
100
100
100
100
100
100
100
100
100
100
100
100
100
100
100
100
100
100
100
100
100
100
100
100
100
100
100
100
100
100
100
100
100
100
100
100
100
100
100
100
100
100
100
100
100
100
100
100
100
100
100
100
100
100
100
100
100
100
100
100
100
100
100
100
100
100
100
100
86.27769
100
100
100
100
100
82.16684
9.694567
100
100
100
100
89.34996
11.90488
2.641832
100
100
100
95.98681
16.85341
3.509212
1.856723
100
100
100
26.89935
5.0003
2.369741
2.17562
100
100
46.29573
8.51267
3.049991
2.476043
2.669633
100
78.27373
17.14292
4.657425
2.892441
3.00052
3.043744
100
37.5452
8.558083
3.681529
3.172701
3.438454
3.157546
82.80583
19.87634
5.751935
3.507267
3.578286
3.681819
3.110422
56.48524
12.56238
4.716276
3.6499
3.953315
3.797126
3.090928
40.82717
9.634781
4.514914
3.870568
4.217983
3.859961
3.013693
31.17822
8.124312
4.380277
4.064345
4.403587
3.833661
2.886845
25.59744
7.293608
4.331998
4.231059
4.528175
3.78739
2.74547
23.10399
6.919921
4.333815
4.345422
4.608568
3.76725
2.679922
23.34252
6.951288
4.334007
4.33541
4.604624
3.785378
2.711535
26.44276
7.407585
4.339359
4.20725
4.51354
3.818965
2.82102
33.1891
8.394077
4.402675
4.021988
4.349643
3.820119
2.94166
44.99831
10.26371
4.575504
3.804702
4.111135
3.784958
3.010249
64.36878
14.11349
4.901247
3.589483
3.806122
3.681991
3.042044
94.75977
23.91734
6.339646
3.53643
3.427144
3.5076
3.009131
100
47.88433
10.42769
3.91758
3.047711
3.17137
2.898828
100
97.44553
24.03819
5.563779
2.911006
2.734147
2.678769
100
100
69.06438
12.58825
3.499154
2.362112
2.357134
100
100
100
47.65358
7.392638
2.624492
2.033792
100
100
100
100
33.67285
5.087279
2.050198
100
100
100
100
100
26.42311
3.836041
100
100
100
100
100
100
23.49305
100
100
100
100
100
100
100
100
100
100
100
100
100
100
100
100
100
100
100
100
100
100
100
100
100
100
100
100
100
100
100
100
100
100
100
100
100
100
100
100
100
100
100
100
100
100
100
100
100
100
100
100
100
100
100
100
100
100
100
100
100
100
100
100
100
100
100
100
100
100
100
100
100
100
100
100
100
100
100
100
100
100
100
100
100
100
100
100
100
100
100
100
100
100
100
100
100
100
100
100
100
100
100
100
100
100
100
100
100
100
100
100
100
100
100
100
100
100
100
100
100
100
100
100
100
100
100
100
100
100
100
100
100
100
100
100
100
100
100
100
100
100
100
100
100
100
100
100
100
100
100
100
100
100
100
100
100
100
100
100
100
100
100
100
100
100
100
100
100
100
100
100
100
100
100
100
100
100
100
100
100
100
100
100
100
100
100
100
100
100
100
100
100
100
100
100
100
100
100
100
100
100
100
100
100
100
100
100
100
100
100
100
100
100
100
100
100
100
100
100
100
100
100
100
100
100
100
100
100
100
100
100
100
100
100
100
100
100
100
100
100
100
100
100
100
100
100
100
100
100
100
100
100
100
100
100
100
100
100
100
100
100
100
100
100
100
100
100
100
100
100
100
100
100
100
100
100
100
100
100
100
100
100
100
100
100
100
79.70166
100
100
100
100
100
100
9.118785
64.21954
100
100
100
100
100
100
100
100
100
100
100
100
100
100
100
100
100
100
100
100
100
100
100
100
100
100
100
100
100
100
100
100
100
100
100
100
100
100
100
100
100
100
100
100
100
100
100
100
100
100
100
100
100
100
100
100
100
100
100
100
100
100
100
100
100
100
100
100
100
100
100
100
100
100
100
100
100
100
100
100
100
100
100
100
100
100
100
100
100
100
100
100
100
100
100
100
100
100
100
100
100
100
100
100
100
100
100
100
100
100
100
100
100
100
100
100
100
100
100
100
100
100
100
100
100
100
100
100
100
100
100
100
100
100
100
100
100
100
100
100
100
100
100
100
100
100
100
100
100
100
100
100
100
100
100
100
100
100
100
100
100
100
100
100
100
100
100
100
100
100
100
100
100
100
100
100
100
100
100
100
100
100
100
100
100
100
100
100
100
100
100
100
100
92.29641
100
100
100
100
100
100
77.74281
100
100
100
100
100
100
69.43252
100
100
100
100
100
100
64.74901
100
100
100
100
100
100
60.73483
100
100
100
100
100
100
66.18232
100
100
100
100
100
100
62.30135
100
100
100
100
100
100
100
100
100
100
100
100
100
100
100
100
100
100
100
100
1.676972
100
100
100
100
96.7064
70.37033
43.31174
100
100
100
90.20668
51.33593
21.69506
5.624204
100
87.45778
74.14425
60.53852
32.07749
6.196958
0.8384522
100
89.69079
57.73949
26.13719
6.400808
1.370724
0.3459084
100
100
21.00293
2.740302
1.460659
1.183917
0.4736789
67.95123
27.68407
2.139371
1.142664
1.165105
1.090283
0.9479681
6.797097
2.860397
1.206258
1.181304
1.043683
1.36801
0.5777284
2.060462
1.500832
1.213539
1.076027
0.8473224
0.9092399
0.559852
1.570412
1.569845
1.27318
0.9442683
0.7572268
0.7031034
0.5168061
1.731637
1.711547
1.215754
0.9722817
0.6792299
0.6674559
0.6884026
2.136805
1.970969
1.330905
0.9519953
0.6959768
0.7441296
1.008268
2.37496
2.06617
1.421023
1.010948
0.6712655
0.863369
0.7490736
2.485854
2.140625
1.462638
0.9948007
0.6765741
0.6663543
0.4779479
2.412881
2.088177
1.44682
1.052801
0.6861855
0.5621436
0.5954397
2.382512
2.118889
1.683616
1.1881
0.7887618
0.6407569
0.6014429
2.394844
2.218778
1.782207
1.224821
0.7864109
0.655365
0.4883207
2.329277
2.183006
1.555166
1.019259
0.693901
0.5820516
0.5632857
2.146427
1.830367
1.230919
0.9357813
0.6386134
0.4935467
0.481692
2.003015
1.570443
1.138053
0.8035533
0.494463
0.407571
0.6347923
1.959881
1.492676
1.116631
0.6894508
0.4374428
0.3370527
1.993506
1.51033
1.126384
0.6902991
0.43077
0.3357337
2.10526
1.583861
1.199097
0.8259451
0.5436214
0.3391247
2.283783
1.804855
1.326664
1.020668
0.6243879
0.5061376
0.4770205
2.412729
2.097247
1.614893
1.072154
0.6686319
0.6294761
0.8724998
2.395149
2.129702
1.741368
1.239828
0.7063807
0.5580856
0.4876653
2.34104
1.963113
1.690873
1.276408
0.7899241
0.7256697
0.6161194
2.238068
1.845823
1.541284
1.177814
0.7406305
0.615745
0.7153633
2.166032
1.745978
1.416214
1.128855
0.7151289
0.578799
0.6594559
2.067379
1.63504
1.303168
0.9975592
0.7003693
0.6257734
0.5135186
1.934816
1.576639
1.211309
0.950648
0.7086659
0.6703423
0.6968253
1.701233
1.527774
1.176543
0.954778
0.7947274
0.7971988
0.6692836
1.708235
1.388471
1.288135
0.9871212
0.8977871
0.7208934
2.390744
2.972253
1.294804
1.319696
1.11651
0.8860316
0.6379429
0.325825
17.25223
2.498246
1.258551
1.284976
1.003312
0.8655646
0.3509668
100
22.83108
2.153447
1.211692
1.218892
1.13968
0.9056971
100
100
20.23338
2.342
1.300754
1.228031
0.9435134
100
100
55.84694
19.53852
4.176203
1.622055
0.4189334
100
95.23199
67.29231
53.71937
29.49968
5.799948
0.7832718
100
100
95.91386
80.99124
50.52947
19.30974
4.752405
100
100
100
100
84.67857
51.11192
31.26148
100
100
100
100
100
100
21.37032
100
100
100
100
100
100
47.45305
100
100
100
100
100
100
94.77016
100
100
100
100
100
100
18.17892
100
100
100
100
100
100
58.34007
100
100
100
100
100
100
52.67424
100
100
100
100
100
100
55.82372
100
100
100
100
100
100
59.94455
100
100
100
100
100
100
66.62163
100
100
100
100
100
100
77.13486
100
100
100
100
100
100
93.42023
100
100
100
100
100
100
100
100
100
100
100
100
100
100
100
100
100
100
100
100
100
100
100
100
100
100
100
100
100
100
100
100
100
100
100
100
100
100
100
100
100
100
100
100
100
100
100
100
100
100
100
100
100
100
100
100
100
100
100
100
100
100
100
100
100
100
100
100
100
100
100
100
100
100
100
100
100
100
100
100
100
100
100
100
100
100
100
100
100
100
100
100
100
100
100
100
100
100
100
100
100
100
100
100
100
100
100
100
100
100
100
100
100
100
100
100
100
100
100
100
100
100
100
100
100
100
100
100
100
100
100
100
100
100
100
100
100
100
100
100
100
100
100
100
100
100
100
100
100
100
100
100
100
100
100
100
100
100
100
100
100
100
100
100
100
100
100
100
100
100
100
100
100
100
100
8.68757e-11
1.047182e-09
3.193397e-09
7.968335e-09
1.467123e-08
2.427489e-08
3.846761e-08
6.733863e-08
1.078276e-07
1.271724e-07
1.313894e-07
1.329668e-07
1.332723e-07
1.328019e-07
1.315898e-07
1.304334e-07
1.290078e-07
1.27378e-07
9.38146e-11
4.029527e-09
5.042157e-09
8.646425e-09
1.463145e-08
2.483975e-08
4.157718e-08
7.051061e-08
1.000449e-07
1.133912e-07
1.174397e-07
1.197977e-07
1.210712e-07
1.216166e-07
1.212959e-07
1.209395e-07
1.202886e-07
1.195337e-07
9.668339e-11
5.912343e-09
9.003548e-09
1.227099e-08
1.885997e-08
3.081079e-08
5.097e-08
7.741199e-08
9.587124e-08
1.043996e-07
1.062808e-07
1.090328e-07
1.107701e-07
1.119203e-07
1.122057e-07
1.125633e-07
1.125077e-07
1.122918e-07
9.706663e-11
9.318183e-09
1.134858e-08
1.580448e-08
2.379042e-08
3.831861e-08
6.010699e-08
7.867946e-08
9.328225e-08
9.99482e-08
9.75435e-08
1.000315e-07
1.019824e-07
1.034392e-07
1.043166e-07
1.049363e-07
1.053601e-07
1.056049e-07
9.715529e-11
1.102055e-08
1.476973e-08
1.841194e-08
2.563852e-08
3.875656e-08
6.059619e-08
8.026992e-08
9.231546e-08
9.741567e-08
9.149854e-08
9.235131e-08
9.438101e-08
9.599931e-08
9.775983e-08
9.787149e-08
9.886727e-08
9.945099e-08
9.720886e-11
1.042251e-08
1.913005e-08
2.062006e-08
2.694749e-08
3.875517e-08
6.021213e-08
8.210838e-08
9.194813e-08
9.511673e-08
8.806583e-08
8.563804e-08
8.777706e-08
8.942924e-08
9.101444e-08
9.159176e-08
9.293853e-08
9.374696e-08
9.728361e-11
9.654517e-09
2.445375e-08
2.311366e-08
2.785148e-08
3.823387e-08
5.857513e-08
8.297544e-08
9.191306e-08
9.271312e-08
8.62308e-08
8.018264e-08
8.198297e-08
8.364804e-08
8.540765e-08
8.597705e-08
8.749141e-08
8.849222e-08
9.738768e-11
9.162163e-09
2.880261e-08
2.607177e-08
2.89428e-08
3.797076e-08
5.677224e-08
8.261927e-08
9.210297e-08
9.122433e-08
8.491218e-08
7.63286e-08
7.67752e-08
7.838873e-08
8.029773e-08
8.071711e-08
8.247765e-08
8.362197e-08
9.751893e-11
8.775288e-09
3.228818e-08
2.875762e-08
3.043915e-08
3.82859e-08
5.544802e-08
8.106668e-08
9.224729e-08
8.9912e-08
8.343412e-08
7.345842e-08
7.205459e-08
7.364553e-08
7.556362e-08
7.594339e-08
7.783183e-08
7.910851e-08
9.767084e-11
8.292366e-09
3.630681e-08
3.108726e-08
3.245431e-08
3.933929e-08
5.483283e-08
7.885477e-08
9.148147e-08
8.849604e-08
8.146855e-08
7.03619e-08
6.782661e-08
6.931282e-08
7.125669e-08
7.158002e-08
7.352617e-08
7.48664e-08
9.782631e-11
7.300772e-09
3.444893e-08
3.307244e-08
3.496647e-08
4.12212e-08
5.537631e-08
7.64906e-08
8.770496e-08
8.433622e-08
7.726675e-08
6.693795e-08
6.385875e-08
6.528103e-08
6.725616e-08
6.747153e-08
6.949718e-08
7.090034e-08
9.791932e-11
5.248333e-09
1.735517e-08
2.973232e-08
3.662571e-08
4.390973e-08
5.719795e-08
7.455438e-08
8.21607e-08
7.819646e-08
7.237497e-08
6.434778e-08
6.017919e-08
6.15685e-08
6.350951e-08
6.36759e-08
6.572564e-08
6.716106e-08
9.775204e-11
3.148291e-09
6.937879e-09
1.271681e-08
3.262776e-08
4.76614e-08
6.077122e-08
7.342851e-08
7.671003e-08
7.277953e-08
6.891182e-08
6.233571e-08
5.690401e-08
5.80873e-08
6.0008e-08
6.004668e-08
6.217746e-08
6.362877e-08
9.616853e-11
1.438843e-09
4.026662e-09
7.559228e-09
1.521269e-08
5.344212e-08
6.653598e-08
7.297063e-08
7.259106e-08
6.877916e-08
6.607061e-08
6.010191e-08
5.41418e-08
5.477569e-08
5.668931e-08
5.663743e-08
5.880215e-08
6.026356e-08
9.299859e-11
2.025081e-09
4.056922e-09
6.43674e-09
1.014979e-08
2.727349e-08
7.093068e-08
7.14776e-08
6.893021e-08
6.507089e-08
6.263918e-08
5.771495e-08
5.161402e-08
5.158908e-08
5.349343e-08
5.342968e-08
5.557408e-08
5.705018e-08
9.005876e-11
2.149935e-09
4.297327e-09
6.221551e-09
8.712205e-09
1.581881e-08
5.006053e-08
6.643731e-08
6.398087e-08
6.044239e-08
5.853748e-08
5.437346e-08
4.924906e-08
4.85453e-08
5.044462e-08
5.036621e-08
5.249993e-08
5.397865e-08
8.962583e-11
2.234088e-09
4.015994e-09
6.17652e-09
8.127562e-09
1.308462e-08
2.745648e-08
5.44244e-08
5.736986e-08
5.516314e-08
5.392497e-08
5.114592e-08
4.705987e-08
4.568367e-08
4.752543e-08
4.743782e-08
4.956906e-08
5.102921e-08
9.015297e-11
2.828314e-09
4.289807e-09
6.156502e-09
8.118613e-09
1.21447e-08
2.132746e-08
3.888105e-08
5.032234e-08
4.998312e-08
4.981778e-08
4.787898e-08
4.440718e-08
4.305244e-08
4.472575e-08
4.464591e-08
4.674932e-08
4.82103e-08
9.058877e-11
3.285375e-09
4.916597e-09
6.159849e-09
8.513033e-09
1.215282e-08
1.898897e-08
2.898202e-08
4.407807e-08
4.535143e-08
4.578386e-08
4.429819e-08
4.200671e-08
4.03645e-08
4.200272e-08
4.1922e-08
4.406625e-08
4.549887e-08
9.090927e-11
3.544111e-09
5.275553e-09
6.58399e-09
8.177904e-09
1.46766e-08
1.749169e-08
2.420879e-08
3.879711e-08
4.129857e-08
4.202249e-08
4.127679e-08
3.888874e-08
3.797316e-08
3.929974e-08
3.938007e-08
4.143149e-08
4.287646e-08
9.117286e-11
3.651355e-09
5.46725e-09
6.714283e-09
8.729657e-09
1.399619e-08
1.985002e-08
2.133509e-08
3.498955e-08
3.807357e-08
3.876755e-08
3.793879e-08
3.626186e-08
3.568066e-08
3.606348e-08
3.785409e-08
3.89669e-08
4.036963e-08
9.141061e-11
3.780014e-09
5.57919e-09
6.627316e-09
9.293024e-09
1.682337e-08
1.632174e-08
2.377622e-08
3.156866e-08
3.520858e-08
3.578744e-08
3.493775e-08
3.418027e-08
3.330509e-08
3.409438e-08
3.511346e-08
3.660918e-08
3.796551e-08
9.166344e-11
3.8433e-09
5.526156e-09
6.479957e-09
1.020886e-08
1.910898e-08
1.709676e-08
2.02498e-08
3.401465e-08
3.224497e-08
3.299068e-08
3.254359e-08
3.156717e-08
3.109959e-08
3.180941e-08
3.298212e-08
3.429374e-08
3.570273e-08
9.197255e-11
3.933481e-09
5.497843e-09
6.364295e-09
1.132833e-08
2.016599e-08
1.739886e-08
2.107374e-08
2.915514e-08
3.196452e-08
3.021268e-08
3.020122e-08
2.906969e-08
2.89612e-08
2.969454e-08
3.088063e-08
3.209159e-08
3.346632e-08
9.234491e-11
4.09419e-09
5.461451e-09
6.265595e-09
1.22273e-08
1.895781e-08
1.796717e-08
2.176439e-08
2.821837e-08
2.847059e-08
2.840052e-08
2.751293e-08
2.693783e-08
2.704538e-08
2.818124e-08
2.889742e-08
2.998018e-08
3.133452e-08
9.275256e-11
4.210475e-09
5.339279e-09
6.213696e-09
1.227292e-08
1.673858e-08
1.896331e-08
2.207486e-08
2.701107e-08
2.635676e-08
2.566634e-08
2.520356e-08
2.468341e-08
2.476815e-08
2.50006e-08
2.665124e-08
2.794027e-08
2.927801e-08
9.322486e-11
4.299072e-09
5.15581e-09
6.269127e-09
1.163195e-08
1.436967e-08
1.898027e-08
2.146228e-08
2.558606e-08
2.432187e-08
2.331954e-08
2.289577e-08
2.252343e-08
2.361205e-08
2.368903e-08
2.509627e-08
2.610008e-08
2.726031e-08
9.374803e-11
4.361126e-09
4.914164e-09
6.525812e-09
1.066296e-08
1.227394e-08
1.679835e-08
2.112514e-08
2.412326e-08
2.237644e-08
2.124751e-08
2.081392e-08
2.063343e-08
2.15901e-08
2.169665e-08
2.313598e-08
2.426185e-08
2.540242e-08
9.432886e-11
4.476226e-09
4.654838e-09
7.04055e-09
9.424673e-09
1.040426e-08
1.484199e-08
2.075214e-08
2.283846e-08
2.045024e-08
1.926443e-08
1.897107e-08
1.886603e-08
1.988288e-08
2.008044e-08
2.144809e-08
2.250625e-08
2.401778e-08
9.50009e-11
4.59416e-09
4.383121e-09
7.18893e-09
7.277416e-09
8.668643e-09
1.322568e-08
2.130476e-08
2.008636e-08
1.83229e-08
1.739061e-08
1.729528e-08
1.712686e-08
1.795543e-08
1.878996e-08
1.982048e-08
2.087256e-08
2.16158e-08
9.575198e-11
4.874421e-09
3.854168e-09
4.651972e-09
5.8105e-09
7.80836e-09
1.252165e-08
2.212315e-08
1.380028e-08
1.584842e-08
1.574927e-08
1.555187e-08
1.577134e-08
1.642752e-08
1.721884e-08
1.827718e-08
1.927594e-08
2.04901e-08
9.659778e-11
5.3968e-09
3.628207e-09
4.583576e-09
4.498046e-09
8.137799e-09
1.211471e-08
1.858581e-08
1.809195e-08
1.568471e-08
1.465084e-08
1.407537e-08
1.43691e-08
1.486228e-08
1.584505e-08
1.679487e-08
1.780534e-08
1.938702e-08
9.751207e-11
5.129526e-09
3.582988e-09
2.49211e-09
5.296327e-09
7.097578e-09
1.051986e-08
1.627448e-08
1.496741e-08
1.392169e-08
1.302107e-08
1.267861e-08
1.305737e-08
1.379822e-08
1.452837e-08
1.539637e-08
1.616314e-08
1.705287e-08
9.894593e-11
2.618979e-09
3.626759e-09
2.447864e-09
3.985551e-09
7.509671e-09
9.369272e-09
1.448725e-08
1.150015e-08
1.207449e-08
1.128856e-08
1.128374e-08
1.171017e-08
1.249192e-08
1.331249e-08
1.406204e-08
1.457621e-08
1.634506e-08
1.021487e-10
4.408112e-09
4.308288e-09
2.825896e-09
2.325455e-09
5.523874e-09
7.603755e-09
1.084561e-08
8.961254e-09
1.195043e-08
9.65686e-09
9.80529e-09
1.060566e-08
1.109406e-08
1.206874e-08
1.303237e-08
1.49737e-08
1.473288e-08
1.072387e-10
2.11968e-09
2.22198e-09
2.13979e-09
3.247307e-09
7.191183e-09
9.047358e-09
5.172919e-09
8.954676e-09
8.491537e-09
8.188631e-09
8.655551e-09
9.694373e-09
1.032068e-08
1.102571e-08
1.161696e-08
1.230292e-08
1.320354e-08
1.113692e-10
1.100408e-09
1.517302e-09
2.104325e-09
3.247423e-09
5.430605e-09
6.4629e-09
5.83838e-09
7.177567e-09
6.988759e-09
7.343003e-09
7.691392e-09
8.261724e-09
9.197728e-09
9.962576e-09
1.02797e-08
1.173793e-08
1.264321e-08
1.385688e-10
5.060531e-10
1.482913e-09
3.138224e-09
3.344306e-09
4.006713e-09
4.82984e-09
4.963679e-09
5.723405e-09
5.963865e-09
6.494746e-09
7.110621e-09
8.19744e-09
8.500414e-09
9.020111e-09
9.953539e-09
1.056389e-08
1.146916e-08
1.607817e-10
2.810446e-10
2.330284e-09
1.802334e-09
2.419517e-09
3.311856e-09
3.882608e-09
4.259308e-09
4.682933e-09
5.173741e-09
5.785829e-09
6.609806e-09
7.201804e-09
7.773728e-09
8.405791e-09
9.491355e-09
9.736102e-09
1.053229e-08
1.557332e-10
6.7116e-10
5.862672e-10
1.362763e-09
2.355953e-09
3.089692e-09
3.261354e-09
3.658432e-09
4.085865e-09
4.650632e-09
5.200005e-09
6.001709e-09
6.471384e-09
7.07434e-09
8.138414e-09
7.97613e-09
8.850846e-09
9.643154e-09
4.814074e-05
2.312459e-10
1.200557e-09
1.195899e-09
1.977233e-09
2.637292e-09
2.773341e-09
3.234601e-09
3.733786e-09
4.202394e-09
4.684706e-09
5.10944e-09
5.837608e-09
6.370631e-09
7.185753e-09
7.528392e-09
8.404245e-09
9.013344e-09
0.0004045416
1.483726e-10
1.489669e-09
1.514924e-09
1.99852e-09
2.277902e-09
2.420602e-09
2.941109e-09
3.382299e-09
3.782477e-09
4.242022e-09
5.166805e-09
5.327025e-09
5.691287e-09
6.22982e-09
7.014436e-09
7.781575e-09
8.232128e-09
0.01488246
1.01378e-10
8.999563e-10
1.151758e-09
1.748726e-09
1.906769e-09
2.361503e-09
2.713963e-09
3.001248e-09
3.416447e-09
3.62919e-09
4.223382e-09
4.606366e-09
5.035036e-09
5.928337e-09
6.446954e-09
6.853367e-09
8.374873e-09
0.05863539
1.042942e-10
9.636663e-10
9.382774e-10
1.323107e-09
1.828653e-09
2.130574e-09
2.425292e-09
2.689386e-09
3.020345e-09
3.599883e-09
3.93727e-09
3.75465e-09
5.181881e-09
5.178019e-09
5.633194e-09
6.943946e-09
7.271893e-09
0.1740257
9.389305e-11
1.024195e-09
6.867693e-10
1.116726e-09
1.713136e-09
1.801806e-09
2.099492e-09
2.361726e-09
2.472239e-09
3.092465e-09
3.140603e-09
3.555703e-09
4.349465e-09
4.448018e-09
5.613667e-09
6.130208e-09
6.406361e-09
0.356348
8.856383e-11
5.022093e-10
5.798919e-10
9.646321e-10
1.420636e-09
1.537986e-09
1.795825e-09
2.047515e-09
2.16498e-09
2.62838e-09
2.769733e-09
3.663198e-09
3.782192e-09
4.14656e-09
4.783477e-09
5.435505e-09
6.66197e-09
0.1088839
8.928673e-11
2.497315e-10
7.904177e-10
8.648335e-10
1.051897e-09
1.350566e-09
1.536916e-09
1.778969e-09
1.847809e-09
2.366361e-09
2.411164e-09
3.037477e-09
2.969031e-09
4.041917e-09
4.474535e-09
4.821879e-09
5.450497e-09
0.003441477
2.872572e-10
4.651496e-10
5.161661e-10
8.142356e-10
9.458248e-10
1.161611e-09
1.29625e-09
1.407049e-09
1.67219e-09
1.885707e-09
2.189591e-09
2.239163e-09
3.233113e-09
3.454901e-09
3.923157e-09
4.749549e-09
5.332251e-09
0.01764996
2.906833e-10
5.117909e-10
5.053188e-10
6.630172e-10
8.995037e-10
9.892421e-10
1.05194e-09
1.150504e-09
1.256454e-09
1.587306e-09
1.788339e-09
2.339427e-09
2.717367e-09
2.837862e-09
3.972789e-09
4.16471e-09
5.041188e-09
0.06415106
1.916143e-10
2.160072e-10
4.303563e-10
9.806521e-10
1.57154e-09
1.276871e-09
1.718877e-09
2.061204e-09
2.046154e-09
2.942884e-09
3.132324e-09
3.969747e-09
4.44231e-09
0.03963254
0.01316079
1.215871e-09
1.465887e-09
1.557178e-09
2.173058e-09
2.475217e-09
3.11861e-09
3.624618e-09
4.451834e-09
0.14777
1.024178e-09
1.467977e-09
1.99211e-09
2.318075e-09
2.778469e-09
3.613892e-09
4.295925e-09
1.224144e-09
1.650332e-09
2.219843e-09
2.570335e-09
3.379123e-09
3.890854e-09
1.599565e-09
1.915805e-09
2.563744e-09
3.15486e-09
3.811662e-09
1.566643e-09
1.849645e-09
2.434973e-09
3.250152e-09
3.86232e-09
1.380875e-09
1.903129e-09
2.590867e-09
3.1215e-09
3.842806e-09
1.383049e-09
1.967529e-09
2.546198e-09
3.199364e-09
3.924701e-09
1.519123e-09
2.172827e-09
2.68532e-09
3.227078e-09
4.042969e-09
1.645691e-09
2.082696e-09
2.789514e-09
3.43957e-09
4.107264e-09
1.296775e-09
2.183576e-09
2.584864e-09
2.662989e-09
3.804565e-09
4.305903e-09
0.1702908
1.634673e-09
2.141254e-09
2.504607e-09
3.139351e-09
3.947327e-09
4.876005e-09
0.07423374
0.02333891
1.576793e-09
1.972485e-09
2.224073e-09
2.784278e-09
3.699966e-09
4.266351e-09
5.094422e-09
0.7971624
1.263723e-10
1.911323e-10
1.145559e-09
1.657634e-09
1.681015e-09
2.189831e-09
2.501153e-09
3.442398e-09
3.944599e-09
4.890547e-09
5.442792e-09
0.01752389
3.341451e-10
7.068617e-10
4.58986e-10
6.505836e-10
8.889896e-10
1.059819e-09
1.181441e-09
1.329293e-09
1.457426e-09
2.145165e-09
2.181599e-09
2.698226e-09
3.047637e-09
3.677419e-09
5.089685e-09
4.911696e-09
6.182002e-09
0.004416305
4.420216e-10
9.893601e-10
5.042499e-10
8.023372e-10
1.059594e-09
1.319143e-09
1.472753e-09
1.714319e-09
2.032681e-09
2.401476e-09
2.6134e-09
3.513234e-09
3.635927e-09
4.081111e-09
5.112614e-09
5.922617e-09
6.680989e-09
0.003303761
1.742154e-10
3.10658e-10
8.982674e-10
1.296775e-09
1.29094e-09
1.689313e-09
1.854881e-09
2.044988e-09
2.606037e-09
2.444529e-09
3.450874e-09
3.225527e-09
4.728551e-09
4.813916e-09
5.958507e-09
6.489449e-09
8.154323e-09
0.06785371
9.073673e-11
3.14664e-10
8.305336e-10
1.162897e-09
1.586694e-09
2.034096e-09
2.323198e-09
2.616791e-09
2.988576e-09
3.33912e-09
3.796022e-09
4.221323e-09
4.511444e-09
6.115079e-09
6.853637e-09
7.453265e-09
8.231457e-09
0.05618479
8.494123e-11
6.045558e-10
7.426819e-10
1.220174e-09
2.356643e-09
2.489446e-09
2.816379e-09
3.287705e-09
3.381987e-09
4.175872e-09
4.310641e-09
5.953093e-09
5.564142e-09
6.364614e-09
7.360169e-09
8.333508e-09
1.011737e-08
0.1397082
1.003769e-10
1.62911e-09
1.163826e-09
1.76711e-09
2.750127e-09
2.91685e-09
3.36941e-09
3.793045e-09
4.026325e-09
5.02652e-09
5.623372e-09
6.070857e-09
6.575464e-09
7.45735e-09
8.819304e-09
1.003519e-08
1.027785e-08
0.05431516
1.065485e-10
1.100076e-09
1.192144e-09
1.860342e-09
2.991539e-09
3.297659e-09
3.894813e-09
4.501406e-09
4.895509e-09
6.688319e-09
6.137267e-09
6.21425e-09
9.410635e-09
8.775213e-09
9.879089e-09
1.12273e-08
1.284391e-08
0.009969727
1.072111e-10
1.260896e-09
1.570513e-09
2.331618e-09
2.552328e-09
3.233776e-09
4.105015e-09
4.992379e-09
5.753131e-09
6.107028e-09
8.43811e-09
8.707326e-09
9.880766e-09
1.075383e-08
1.192684e-08
1.263067e-08
1.439593e-08
0.000188923
1.962123e-10
9.338364e-10
1.386148e-09
2.104527e-09
2.856907e-09
3.10673e-09
4.145811e-09
5.375387e-09
6.468572e-09
7.033252e-09
1.001851e-08
9.806901e-09
8.898103e-09
1.410574e-08
1.406031e-08
1.540046e-08
1.605688e-08
1.8891e-05
2.79181e-10
7.500735e-10
1.090353e-09
1.930913e-09
2.929517e-09
3.338832e-09
4.271161e-09
5.516529e-09
7.103201e-09
8.442336e-09
1.070842e-08
1.234551e-08
1.234577e-08
1.73718e-08
1.587139e-08
1.751023e-08
1.837356e-08
1.670177e-10
2.864799e-10
9.92501e-10
1.727831e-09
2.398048e-09
3.157089e-09
3.578533e-09
4.450171e-09
5.626538e-09
7.485673e-09
9.424283e-09
1.19295e-08
1.395939e-08
1.61864e-08
1.392002e-08
2.106031e-08
1.932151e-08
2.003174e-08
1.752676e-10
2.304021e-10
1.382203e-09
1.977226e-09
2.685081e-09
3.395477e-09
3.937773e-09
4.747451e-09
5.954352e-09
7.864479e-09
1.034416e-08
1.236405e-08
1.693103e-08
1.893389e-08
1.830324e-08
1.921214e-08
2.097312e-08
2.269842e-08
1.18485e-10
5.323203e-10
1.143435e-09
2.411796e-09
3.120099e-09
3.896556e-09
4.479147e-09
5.27549e-09
6.646674e-09
8.537431e-09
1.14416e-08
1.347192e-08
1.716953e-08
1.944257e-08
2.167142e-08
2.682576e-08
2.321272e-08
2.591879e-08
1.155674e-10
8.894089e-10
1.335999e-09
2.230235e-09
2.890067e-09
4.854608e-09
4.819072e-09
6.787864e-09
7.289658e-09
9.335597e-09
1.238557e-08
1.587332e-08
2.025089e-08
2.489758e-08
2.628622e-08
2.514226e-08
2.977213e-08
2.979045e-08
1.061566e-10
9.618489e-10
1.853523e-09
2.305478e-09
2.102786e-09
9.992356e-09
6.824801e-09
5.044468e-09
1.026869e-08
9.905559e-09
1.325133e-08
1.796012e-08
2.650095e-08
2.540592e-08
2.986148e-08
2.845932e-08
3.308077e-08
3.712216e-08
1.023197e-10
1.034714e-09
4.090604e-09
1.846605e-09
2.459905e-09
8.193744e-09
5.812217e-09
7.159259e-09
9.326726e-09
1.299796e-08
1.5799e-08
2.100307e-08
2.565082e-08
3.438851e-08
3.681074e-08
3.869483e-08
4.402335e-08
3.591033e-08
9.815298e-11
1.069362e-09
3.10909e-09
1.959984e-09
4.030305e-09
7.511317e-09
7.167669e-09
8.698876e-09
1.028859e-08
1.385576e-08
1.858484e-08
2.450867e-08
3.038086e-08
4.02061e-08
4.391874e-08
4.539497e-08
3.942966e-08
5.13651e-08
9.732672e-11
1.519465e-09
2.942494e-09
2.806403e-09
7.026761e-09
7.227975e-09
8.444994e-09
9.290154e-09
1.055675e-08
1.606032e-08
2.131209e-08
2.861141e-08
3.534868e-08
4.522444e-08
5.087958e-08
5.284032e-08
4.975687e-08
5.755256e-08
9.645517e-11
1.966374e-09
3.523382e-09
6.582352e-09
4.428213e-09
8.509198e-09
1.053102e-08
1.035114e-08
1.592093e-08
1.68453e-08
2.412601e-08
3.306449e-08
4.292214e-08
5.447671e-08
6.101827e-08
6.267335e-08
6.322501e-08
5.743848e-08
9.564022e-11
2.168814e-09
4.310433e-09
6.816381e-09
4.948311e-09
1.174425e-08
1.299313e-08
1.211712e-08
1.928274e-08
1.868576e-08
2.716768e-08
3.789714e-08
4.894014e-08
6.255047e-08
7.297371e-08
7.405835e-08
7.5677e-08
6.731588e-08
9.493167e-11
2.366472e-09
5.618487e-09
1.179026e-08
6.959435e-09
1.067417e-08
1.324756e-08
1.454238e-08
1.92888e-08
2.403232e-08
3.294533e-08
4.46782e-08
5.845707e-08
7.53838e-08
8.464837e-08
8.744834e-08
8.507599e-08
7.307809e-08
9.430864e-11
2.500464e-09
6.368818e-09
9.259194e-09
1.045275e-08
1.151669e-08
1.409848e-08
1.700991e-08
2.103566e-08
2.942877e-08
4.027048e-08
5.268105e-08
6.761446e-08
8.148075e-08
1.07443e-07
1.068443e-07
1.025598e-07
1.056756e-07
9.374778e-11
2.619302e-09
6.611025e-09
8.962001e-09
1.140151e-08
1.310544e-08
1.58983e-08
1.988079e-08
2.490685e-08
3.625264e-08
4.873158e-08
6.111394e-08
7.750375e-08
1.037514e-07
1.313731e-07
1.270422e-07
1.207393e-07
1.162835e-07
9.324376e-11
2.72534e-09
6.634905e-09
9.016868e-09
1.151298e-08
1.492646e-08
1.827221e-08
2.390742e-08
3.136947e-08
4.59588e-08
5.78166e-08
6.918344e-08
8.657364e-08
1.373088e-07
1.786881e-07
1.487795e-07
1.413965e-07
1.31809e-07
9.277467e-11
2.815255e-09
6.455753e-09
8.981318e-09
1.175137e-08
1.627651e-08
2.121959e-08
3.010333e-08
4.272362e-08
5.986312e-08
7.009583e-08
6.974321e-08
9.974271e-08
1.422095e-07
1.952432e-07
1.836937e-07
1.667491e-07
1.515672e-07
9.241958e-11
2.852068e-09
6.408653e-09
8.908044e-09
1.215752e-08
1.660154e-08
2.469606e-08
4.103338e-08
6.61358e-08
8.380189e-08
6.276606e-08
7.898899e-08
1.189256e-07
2.137912e-07
2.821119e-07
2.217442e-07
1.951655e-07
1.749961e-07
9.204809e-11
2.997576e-09
6.237615e-09
8.697212e-09
1.251821e-08
1.72241e-08
2.88935e-08
5.953895e-08
1.187492e-07
6.654142e-08
7.223052e-08
8.878585e-08
1.402706e-07
2.749901e-07
3.126916e-07
2.67547e-07
2.261078e-07
1.979566e-07
9.176187e-11
3.011258e-09
6.092583e-09
8.502116e-09
1.266176e-08
1.848145e-08
2.933446e-08
5.337714e-08
8.179038e-08
8.145264e-08
7.904162e-08
9.958174e-08
1.601657e-07
3.499021e-07
3.69634e-07
3.159731e-07
2.579668e-07
2.214333e-07
9.153842e-11
3.100287e-09
6.004068e-09
8.270817e-09
1.253414e-08
1.879611e-08
2.730384e-08
4.978282e-08
1.291975e-07
8.799668e-08
8.555397e-08
1.093065e-07
1.789379e-07
4.188104e-07
4.107572e-07
3.545096e-07
2.832912e-07
2.422609e-07
9.135844e-11
3.210274e-09
5.824296e-09
7.961499e-09
1.206644e-08
1.970247e-08
2.606905e-08
4.814822e-08
1.367555e-07
9.151565e-08
9.103542e-08
1.18428e-07
1.983801e-07
4.6508e-07
5.595183e-07
3.933551e-07
3.032487e-07
2.564576e-07
9.115472e-11
3.263307e-09
5.482627e-09
7.516069e-09
1.301379e-08
1.649524e-08
2.778224e-08
5.016682e-08
1.369311e-07
9.321765e-08
9.592726e-08
1.280231e-07
2.193023e-07
4.62671e-07
5.127914e-07
4.139406e-07
3.178933e-07
2.664026e-07
9.086882e-11
3.257457e-09
5.01265e-09
8.09285e-09
9.767925e-09
1.975373e-08
2.743052e-08
6.184898e-08
1.298288e-07
9.266197e-08
1.009986e-07
1.395759e-07
2.434934e-07
4.462399e-07
5.24667e-07
3.665407e-07
3.152966e-07
2.694286e-07
9.054075e-11
3.030297e-09
5.148628e-09
5.859876e-09
1.174397e-08
1.946433e-08
2.938304e-08
8.821423e-08
1.051107e-07
8.9526e-08
1.063486e-07
1.531576e-07
2.736881e-07
4.234808e-07
4.479095e-07
3.379378e-07
3.055749e-07
2.673824e-07
8.998275e-11
2.595517e-09
3.56749e-09
6.978961e-09
1.215524e-08
2.049327e-08
3.604405e-08
2.294739e-07
8.846076e-08
8.879523e-08
1.138361e-07
1.703777e-07
2.943654e-07
3.855275e-07
3.931663e-07
3.168875e-07
2.934971e-07
2.623044e-07
9.057386e-11
2.35116e-09
4.300432e-09
7.58449e-09
1.351689e-08
2.209602e-08
5.987705e-08
1.285305e-07
7.533612e-08
9.081135e-08
1.233472e-07