/*--------------------------------*- C++ -*----------------------------------*\
| =========                 |                                                 |
| \\      /  F ield         | OpenFOAM: The Open Source CFD Toolbox           |
|  \\    /   O peration     | Version:  2206                                  |
|   \\  /    A nd           | Website:  www.openfoam.com                      |
|    \\/     M anipulation  |                                                 |
\*---------------------------------------------------------------------------*/
FoamFile
{
    version     2.0;
    format      ascii;
    arch        "LSB;label=32;scalar=64";
    class       volScalarField;
    location    "1.4";
    object      omega.b_0;
}
// * * * * * * * * * * * * * * * * * * * * * * * * * * * * * * * * * * * * * //

dimensions      [0 0 -1 0 0 0 0];

internalField   nonuniform List<scalar> 
13078
(
6.495683
0.5223008
0.4528778
0.4530613
0.4541697
0.4554507
0.4569315
6.57947
0.5112234
0.4523563
0.4529923
0.4541306
0.4554199
0.4568995
6.585492
0.5099834
0.4522718
0.4529189
0.4540807
0.4553808
0.4568627
6.591679
0.5093069
0.4522205
0.4528638
0.4540343
0.455341
0.4568245
6.598133
0.5090701
0.4521918
0.4528399
0.4539961
0.4553033
0.456787
6.604802
0.5089667
0.4521788
0.4528258
0.453982
0.4552707
0.4567509
6.611848
0.508968
0.4521754
0.4528133
0.4539724
0.4552605
0.4567187
6.619131
0.509024
0.4521763
0.452806
0.4539664
0.4552538
0.4567101
6.626655
0.5090748
0.4521762
0.4528038
0.4539628
0.4552487
0.456704
6.634488
0.5091504
0.4521772
0.4528025
0.4539602
0.4552448
0.456699
6.642682
0.5092414
0.4521783
0.4528016
0.453958
0.4552413
0.4566943
6.651186
0.5093434
0.4521791
0.4528008
0.4539561
0.4552382
0.4566901
6.660084
0.5094541
0.4521797
0.4527997
0.4539543
0.4552353
0.4566859
6.669375
0.5095723
0.45218
0.4527982
0.4539518
0.4552321
0.4566816
6.679072
0.5096966
0.4521802
0.4527908
0.4539406
0.4552281
0.4566774
6.689206
0.5098264
0.4521802
0.4527813
0.4539315
0.4552243
0.4566729
6.69983
0.5099605
0.4521799
0.4527787
0.4539283
0.4552207
0.4566683
6.710875
0.5100983
0.4521795
0.4527764
0.4539252
0.4552171
0.4566634
6.722538
0.5102406
0.4521789
0.452774
0.4539216
0.4552123
0.4566583
6.734686
0.5103857
0.4521779
0.4527707
0.4539088
0.455194
0.4566517
6.747501
0.5105348
0.4521769
0.452767
0.4538931
0.455179
0.456645
6.760848
0.5106863
0.4521758
0.452764
0.4538878
0.4551731
0.456639
6.774919
0.5108405
0.4521742
0.4527605
0.4538831
0.4551665
0.4566311
6.789678
0.5109974
0.4521726
0.4527569
0.453877
0.455147
0.4566033
6.805169
0.5111567
0.4521708
0.452753
0.4538705
0.4551231
0.4565803
6.821431
0.5113185
0.4521685
0.4527486
0.4538644
0.4551137
0.4565699
6.838694
0.5114782
0.452166
0.4527441
0.4538579
0.4551049
0.4565589
6.860782
0.5116794
0.4521641
0.4527392
0.4538507
0.4550944
0.4565283
6.889512
0.5118151
0.4521606
0.4527339
0.4538429
0.4550825
0.4564904
6.964901
0.5126005
0.4521674
0.4527281
0.4538345
0.4550715
0.4564743
7.077898
0.5132052
0.4521542
0.4527216
0.4538253
0.4550592
0.4564566
7.116327
0.5144976
0.4521263
0.4527127
0.4538151
0.4550458
0.4564374
7.153721
0.5161657
0.4521502
0.4526951
0.4538019
0.4550309
0.4564192
7.186841
0.5165809
0.4521509
0.4526817
0.4537871
0.4550134
0.4563987
7.221337
0.5170067
0.4521449
0.4526604
0.4537649
0.4549895
0.4563747
7.257501
0.5174939
0.4521407
0.4526242
0.4537232
0.4549521
0.4563433
7.2953
0.518025
0.4521358
0.4526058
0.4536673
0.4549257
0.4563082
7.335031
0.5185923
0.4521278
0.452587
0.4536362
0.454872
0.4562591
7.385165
0.5192186
0.4521153
0.45256
0.4535956
0.4547644
0.456215
7.498021
0.5209439
0.4520979
0.4525032
0.4535154
0.45465
0.4560868
7.67372
0.5234251
0.4519938
0.4523689
0.4533354
0.4544475
0.455809
7.74889
0.5262251
0.4518585
0.4521119
0.4530432
0.4542486
0.4558689
7.810542
0.5273984
0.4515532
0.4517602
0.452838
0.4542865
0.4562495
7.878357
0.5286391
0.4512069
0.4514531
0.4529026
0.4546944
0.4566994
7.986775
0.5309774
0.4509831
0.4514721
0.4530482
0.4550511
0.4572174
8.166373
0.5338562
0.450933
0.4516802
0.4532749
0.4550834
0.4573528
8.255054
0.5372465
0.4510784
0.4518121
0.4533301
0.455065
0.4569617
8.326688
0.5386353
0.4511482
0.4517357
0.4531704
0.454857
0.4566523
8.395646
0.5396373
0.451139
0.4515869
0.4528784
0.4544423
0.4561129
8.464832
0.5400719
0.4510499
0.4514622
0.4527355
0.4540666
0.4555678
8.567709
0.5428854
0.4509004
0.4513768
0.4525851
0.4537803
0.4551329
8.825642
0.5472062
0.4508269
0.4513365
0.4524705
0.4535561
0.4546785
8.927679
0.5489896
0.4506912
0.4510132
0.4522139
0.4533843
0.4544384
8.975818
0.5494483
0.4504527
0.4508176
0.4521137
0.4533561
0.454346
9.002
0.549902
0.4502322
0.4506224
0.4519595
0.4531869
0.4541379
9.011488
0.5510059
0.4500828
0.4504276
0.4517184
0.4528889
0.4538748
9.011527
0.5508259
0.4500574
0.4504191
0.4517313
0.4528879
0.4538137
9.002051
0.5495032
0.4501947
0.4506182
0.4519551
0.4531634
0.4541007
8.975871
0.5489451
0.4503952
0.4507964
0.4520753
0.4532852
0.4542575
8.927767
0.5484319
0.4505712
0.4509267
0.4520953
0.4532241
0.4542668
8.825748
0.5467043
0.4506535
0.4511484
0.4522536
0.4533107
0.4543918
8.56781
0.5425678
0.4507425
0.4512248
0.4523893
0.4535161
0.4547873
8.464891
0.5397979
0.4508616
0.4512332
0.4524586
0.4537051
0.4551085
8.395682
0.5392825
0.4509262
0.451302
0.4525374
0.4540042
0.4555935
8.326691
0.5381852
0.4509326
0.451429
0.4527852
0.454414
0.4560912
8.255054
0.5367668
0.4508929
0.4515325
0.4529518
0.4545694
0.4563809
8.166373
0.5334168
0.4507956
0.4514392
0.4529123
0.4545848
0.4566885
7.986775
0.5306204
0.4508844
0.4512991
0.4527404
0.454563
0.4565514
7.878357
0.5284448
0.4511328
0.4513443
0.452656
0.4542893
0.456192
7.810542
0.5273476
0.451498
0.4516684
0.4526816
0.454028
0.4558668
7.749104
0.5262922
0.4518226
0.4520426
0.4529558
0.4541352
0.4556661
7.678123
0.5240385
0.4519879
0.4523248
0.4532886
0.4543932
0.4557291
7.53547
0.5220137
0.4520884
0.4524805
0.4534909
0.4546187
0.4560447
7.439012
0.5205286
0.4521135
0.4525471
0.4535781
0.4547452
0.4561931
7.388639
0.5197946
0.452127
0.4525744
0.4536235
0.4548618
0.4562458
7.344496
0.5187836
0.4521294
0.4525975
0.4536744
0.4549215
0.4562986
7.300795
0.5179385
0.4521389
0.4526188
0.4537252
0.4549494
0.4563374
7.237691
0.5173177
0.4521462
0.4526558
0.4537576
0.4549845
0.456369
7.19073
0.5166956
0.45215
0.4526781
0.4537829
0.4550089
0.456394
7.154754
0.516273
0.4521497
0.4526921
0.4537985
0.4550274
0.4564156
7.116392
0.5145799
0.4521257
0.4527103
0.4538124
0.455043
0.4564349
7.077898
0.5132773
0.4521538
0.4527196
0.4538233
0.4550572
0.4564546
6.964901
0.5126599
0.4521671
0.4527266
0.4538329
0.45507
0.4564729
6.889512
0.51187
0.4521604
0.4527327
0.4538417
0.4550813
0.4564892
6.860782
0.5117281
0.452164
0.4527381
0.4538498
0.4550933
0.4565273
6.838694
0.5115217
0.4521659
0.4527433
0.4538571
0.4551041
0.4565582
6.821431
0.5113574
0.4521684
0.452748
0.4538637
0.455113
0.4565694
6.805169
0.5111915
0.4521708
0.4527524
0.4538699
0.4551226
0.45658
6.789678
0.5110285
0.4521726
0.4527563
0.4538766
0.4551466
0.456603
6.774919
0.5108681
0.4521743
0.4527601
0.4538827
0.4551661
0.4566309
6.760848
0.5107106
0.4521758
0.4527636
0.4538875
0.4551728
0.4566387
6.747501
0.510556
0.4521769
0.4527668
0.453893
0.4551788
0.4566449
6.734686
0.5104039
0.452178
0.4527706
0.4539087
0.4551939
0.4566518
6.722538
0.5102559
0.452179
0.4527739
0.4539215
0.4552123
0.4566585
6.710875
0.5101107
0.4521797
0.4527764
0.4539252
0.4552171
0.4566635
6.69983
0.5099701
0.4521801
0.4527788
0.4539283
0.4552207
0.4566683
6.689206
0.509833
0.4521804
0.4527815
0.4539315
0.4552243
0.4566729
6.679072
0.5097
0.4521806
0.452791
0.4539407
0.4552282
0.4566775
6.669375
0.5095721
0.4521805
0.4527985
0.453952
0.4552322
0.4566817
6.660084
0.5094496
0.4521803
0.4528002
0.4539545
0.4552353
0.4566858
6.651186
0.5093335
0.4521798
0.4528013
0.4539563
0.4552381
0.4566897
6.642682
0.5092245
0.4521792
0.4528022
0.453958
0.4552409
0.4566936
6.634488
0.5091241
0.4521782
0.4528031
0.4539599
0.4552439
0.4566978
6.626655
0.5090353
0.4521772
0.4528039
0.4539619
0.4552471
0.4567022
6.619131
0.5089646
0.4521768
0.4528052
0.4539643
0.455251
0.4567072
6.611848
0.5088787
0.4521743
0.4528107
0.4539682
0.455256
0.4567145
6.604802
0.5088309
0.4521739
0.4528194
0.4539745
0.4552638
0.4567451
6.598133
0.5088606
0.4521785
0.4528267
0.4539838
0.4552932
0.4567794
6.591679
0.5089615
0.4521912
0.4528403
0.4540155
0.4553275
0.4568153
6.585492
0.5092731
0.4522169
0.4528804
0.454055
0.4553647
0.4568529
6.57947
0.5094888
0.4522606
0.4529362
0.4541009
0.4554045
0.4568913
6.495683
0.5077966
0.4523346
0.4530135
0.454155
0.4554461
0.4569297
0.4586775
0.4608749
0.4638106
0.4666209
0.4716267
0.4795754
0.5020727
0.4586405
0.460827
0.4637476
0.4665461
0.4715347
0.4794438
0.5047221
0.458601
0.4607788
0.4636869
0.467516
0.4714511
0.4793157
0.5041498
0.4585606
0.46073
0.4636229
0.466396
0.4713533
0.4791879
0.5036394
0.4585211
0.4606812
0.4635614
0.4663159
0.471262
0.4790606
0.5032216
0.458482
0.4606324
0.4634988
0.4662399
0.4711717
0.4789342
0.5028175
0.458444
0.4605841
0.4634365
0.4661663
0.4711466
0.4788096
0.5024254
0.4584092
0.4605363
0.4633749
0.4660943
0.4711233
0.4786864
0.5020428
0.4584004
0.4604922
0.4633162
0.4660208
0.4710515
0.478574
0.5016678
0.4583939
0.4604811
0.4632614
0.4659476
0.4709803
0.4784624
0.5013002
0.4583881
0.4604729
0.4632471
0.4658766
0.4709094
0.4783513
0.5009391
0.4583823
0.4604646
0.4632362
0.4658613
0.4708381
0.4782402
0.5005832
0.4583766
0.4604564
0.463225
0.4658476
0.470826
0.4781272
0.5002284
0.4583707
0.460448
0.4632135
0.4658334
0.4708125
0.478105
0.4998416
0.4583649
0.4604393
0.4632015
0.4658186
0.4707982
0.47808
0.4998367
0.4583587
0.4604302
0.4631892
0.4658033
0.470783
0.4780535
0.4994439
0.4583524
0.4604208
0.4631764
0.4657871
0.4707609
0.4780258
0.4989446
0.4583458
0.4604112
0.4631629
0.4657626
0.4705445
0.4779964
0.4984351
0.4583389
0.4604018
0.4631491
0.465745
0.4705166
0.4779664
0.4980002
0.4583316
0.4603918
0.4631346
0.4657267
0.4704936
0.4779349
0.4975098
0.4583241
0.4603813
0.4631196
0.4657075
0.4704697
0.4779023
0.496999
0.458316
0.4603703
0.463104
0.4656874
0.4704449
0.4778681
0.4966337
0.4583075
0.4603585
0.4630864
0.465668
0.4704144
0.4778325
0.4962968
0.4582964
0.4603461
0.4630708
0.4666181
0.470219
0.477777
0.4960015
0.4582851
0.460333
0.4630493
0.4656297
0.4701105
0.4777324
0.4957666
0.4582746
0.4603194
0.4630317
0.4655964
0.4700736
0.477691
0.4955356
0.4582608
0.4603036
0.4630099
0.4655696
0.4700352
0.4776406
0.495358
0.458217
0.4602855
0.4629902
0.4655416
0.4699823
0.4772134
0.4951838
0.4581823
0.4597203
0.4622346
0.4655104
0.4699344
0.4770519
0.4950516
0.4581686
0.4597006
0.4622073
0.4654776
0.4698906
0.476992
0.494954
0.4581027
0.4596335
0.4621827
0.4654444
0.4698445
0.4767062
0.4948222
0.4580544
0.4595627
0.4621556
0.4654086
0.4697944
0.4763632
0.4947216
0.4580279
0.4594791
0.4621165
0.4653702
0.4697415
0.4762783
0.4946616
0.458002
0.4594386
0.46201
0.4653295
0.4696855
0.4761501
0.4926442
0.4579734
0.4594121
0.4619191
0.4652795
0.4696269
0.4760495
0.4927004
0.4579422
0.4593882
0.4617344
0.4652124
0.4695696
0.475962
0.4890966
0.4579061
0.459367
0.4616698
0.4650017
0.469529
0.4758749
0.4904673
0.4578584
0.459351
0.4616273
0.464939
0.4694495
0.4759771
0.4899501
0.4578014
0.4593327
0.4616094
0.4648042
0.4696154
0.4768191
0.4880173
0.4577282
0.4593687
0.461808
0.4653919
0.4706587
0.477957
0.4880676
0.4578952
0.45951
0.462522
0.4666039
0.4715911
0.4783759
0.4898647
0.4581236
0.4599448
0.4636509
0.4678361
0.4723156
0.4776203
0.4887094
0.4587003
0.4606977
0.4642868
0.4681696
0.4725682
0.4770094
0.4874581
0.4594818
0.4614873
0.4649916
0.4687243
0.4726117
0.4772799
0.4876453
0.459786
0.4619865
0.4652558
0.468953
0.4725359
0.4774828
0.4881248
0.4598057
0.4622875
0.4655517
0.4687256
0.4723102
0.4766361
0.4877091
0.4594302
0.4621351
0.4654255
0.4684887
0.4714611
0.4759923
0.4848632
0.4590569
0.4618957
0.4648551
0.4677672
0.4709996
0.474742
0.4812889
0.4583643
0.4610973
0.4642245
0.4673089
0.4701574
0.4743941
0.4802671
0.457692
0.4604712
0.4638433
0.4668076
0.4698149
0.4735192
0.479388
0.4573409
0.4596575
0.4627338
0.4658187
0.4691015
0.4727001
0.4773891
0.4566947
0.4589315
0.4617275
0.4640175
0.4674462
0.4717666
0.4770344
0.4560063
0.4580796
0.4609511
0.4633831
0.4660588
0.4700302
0.4749757
0.4558318
0.4579301
0.4604752
0.4626054
0.4648586
0.4679176
0.4722282
0.4555879
0.4577254
0.4600564
0.4623846
0.4640492
0.4650675
0.4705725
0.4552564
0.4574586
0.4597556
0.4616874
0.4631866
0.4647555
0.4551939
0.4572776
0.4590736
0.4612346
0.4624268
0.4637744
0.4554745
0.4573526
0.4597005
0.4617821
0.4631501
0.4650194
0.4556649
0.4574079
0.4597307
0.4616821
0.4638285
0.4660709
0.4698574
0.4558382
0.4575383
0.4599591
0.4624448
0.4647908
0.4687384
0.4749685
0.4563189
0.4579899
0.4606842
0.4635042
0.4663106
0.4701651
0.4757708
0.4568535
0.4586913
0.4620177
0.464318
0.4679022
0.4714422
0.4766246
0.4571078
0.4587393
0.4628961
0.465534
0.4683584
0.4722803
0.4779585
0.4577465
0.4597734
0.4631896
0.4660573
0.4691692
0.4729733
0.4789881
0.4583868
0.4603419
0.4637665
0.4666988
0.4698403
0.4732923
0.4802031
0.4587359
0.4608666
0.4641997
0.4673719
0.4704442
0.4744062
0.482192
0.4590164
0.4611619
0.4644363
0.467622
0.4712218
0.4752024
0.4852555
0.4590174
0.4613814
0.464464
0.4678039
0.4715087
0.4764337
0.486301
0.4587038
0.461188
0.464272
0.4679187
0.471784
0.4766516
0.486511
0.458167
0.4606255
0.4638294
0.4674288
0.4720342
0.4764957
0.4869884
0.4577423
0.459929
0.4629881
0.4672813
0.4718128
0.4767462
0.4873655
0.4576788
0.4597216
0.4624944
0.4666638
0.4714485
0.4775542
0.489055
0.4576857
0.4594035
0.4619088
0.46558
0.4704829
0.4777859
0.4890251
0.4577769
0.4593963
0.4616075
0.4648717
0.4701435
0.4773161
0.4876152
0.4578432
0.4593978
0.4615947
0.4647371
0.4695543
0.4763812
0.4878843
0.4578951
0.4594154
0.4616422
0.465142
0.4694794
0.4758677
0.4898102
0.4579339
0.4594227
0.4616988
0.4650912
0.4695343
0.4758996
0.4903494
0.4579671
0.4594319
0.4617867
0.4652391
0.4695902
0.4759934
0.4926383
0.4579972
0.4594392
0.46195
0.4653024
0.4696506
0.476095
0.4928516
0.4580244
0.4594927
0.4620907
0.4653462
0.4697094
0.4762182
0.4935083
0.4580517
0.4595511
0.4621326
0.4653867
0.4697649
0.4763145
0.4947427
0.4581006
0.4595956
0.4621673
0.4654246
0.4698169
0.4764257
0.494786
0.4581674
0.4596959
0.4621937
0.4654597
0.4698661
0.476953
0.4949205
0.4581813
0.4597317
0.4622189
0.4654916
0.4699114
0.4770208
0.4950196
0.4582162
0.4602848
0.4629897
0.4655289
0.469956
0.477084
0.4951122
0.4582602
0.4603031
0.4630094
0.4655581
0.470011
0.4774749
0.4952651
0.4582741
0.4603189
0.4630308
0.4655843
0.4700548
0.4776696
0.4954373
0.4582848
0.4603328
0.4630505
0.4656091
0.4700928
0.4777125
0.4956312
0.4582962
0.4603461
0.4630694
0.4656331
0.4701332
0.4777534
0.495844
0.4583073
0.4603585
0.4630871
0.4656561
0.4703463
0.4778083
0.4961165
0.4583158
0.4603702
0.4631039
0.4656779
0.4704328
0.4778519
0.496383
0.458324
0.4603814
0.4631198
0.4656985
0.4704583
0.4778869
0.4967255
0.4583317
0.4603919
0.463135
0.4657183
0.4704831
0.4779204
0.4970884
0.4583391
0.4604019
0.4631496
0.465737
0.4705064
0.4779525
0.4975121
0.4583459
0.4604115
0.4631633
0.4657549
0.4705287
0.4779834
0.4980283
0.4583525
0.460421
0.4631768
0.4657769
0.4706405
0.4780132
0.4985188
0.4583588
0.4604304
0.4631896
0.4657966
0.4707764
0.4780419
0.4989907
0.4583649
0.4604394
0.4632019
0.4658125
0.4707917
0.4780692
0.4994251
0.4583707
0.4604481
0.4632137
0.4658278
0.4708064
0.478095
0.4998672
0.4583764
0.4604563
0.4632251
0.4658424
0.4708202
0.4781194
0.5001037
0.4583818
0.4604643
0.4632361
0.4658566
0.4708336
0.4781869
0.5004486
0.4583873
0.4604723
0.4632468
0.4658703
0.470875
0.4782977
0.5008085
0.4583928
0.4604801
0.4632607
0.4659135
0.4709452
0.4784087
0.5011688
0.4583986
0.4604908
0.4633151
0.4659865
0.4710162
0.47852
0.5015328
0.4584067
0.4605342
0.4633733
0.4660602
0.4710874
0.4786319
0.5019026
0.4584404
0.4605813
0.4634344
0.4661343
0.4711559
0.4787491
0.5022789
0.4584775
0.4606289
0.4634962
0.4662049
0.4711296
0.4788732
0.5026631
0.4585156
0.4606773
0.4635585
0.4662802
0.4712168
0.4789984
0.5030567
0.4585546
0.4607262
0.4636212
0.4663556
0.4713071
0.479125
0.5034613
0.4585951
0.4607755
0.4636841
0.4664314
0.471398
0.4792521
0.50391
0.458636
0.4608246
0.4637471
0.4665069
0.4714892
0.4793798
0.5044375
0.4586767
0.4608744
0.4638101
0.4665823
0.4715806
0.4795095
0.5054526
4.500588
5.022785
4.984437
4.984414
4.984414
4.984413
4.984413
4.984413
4.984413
4.984413
4.984413
4.984413
4.984413
4.984413
4.984413
4.984413
4.984413
4.984413
4.795686
4.989866
4.984422
4.984419
4.984419
4.984419
4.984419
4.984419
4.984419
4.984419
4.984419
4.984419
4.984419
4.984419
4.984419
4.984419
4.984419
4.984419
4.780452
4.990138
4.984421
4.98442
4.98442
4.98442
4.98442
4.98442
4.98442
4.98442
4.98442
4.98442
4.98442
4.98442
4.98442
4.98442
4.98442
4.98442
4.766537
4.990016
4.984421
4.98442
4.98442
4.98442
4.98442
4.98442
4.98442
4.98442
4.98442
4.98442
4.98442
4.98442
4.98442
4.98442
4.98442
4.98442
4.750683
4.989962
4.984421
4.98442
4.98442
4.98442
4.98442
4.98442
4.98442
4.98442
4.98442
4.98442
4.98442
4.98442
4.98442
4.98442
4.98442
4.98442
4.732597
4.990031
4.984421
4.98442
4.98442
4.98442
4.98442
4.98442
4.98442
4.98442
4.98442
4.98442
4.98442
4.98442
4.98442
4.98442
4.98442
4.98442
4.712406
4.990138
4.984421
4.98442
4.98442
4.98442
4.98442
4.98442
4.98442
4.98442
4.98442
4.98442
4.98442
4.98442
4.98442
4.98442
4.98442
4.98442
4.690278
4.990255
4.984422
4.98442
4.98442
4.98442
4.98442
4.98442
4.98442
4.98442
4.98442
4.98442
4.98442
4.98442
4.98442
4.98442
4.98442
4.98442
4.66637
4.990373
4.984422
4.98442
4.98442
4.98442
4.98442
4.98442
4.98442
4.98442
4.98442
4.98442
4.98442
4.98442
4.98442
4.98442
4.98442
4.98442
4.640846
4.990489
4.984422
4.98442
4.98442
4.98442
4.98442
4.98442
4.98442
4.98442
4.98442
4.98442
4.98442
4.98442
4.98442
4.98442
4.98442
4.98442
4.613825
4.990619
4.984422
4.98442
4.98442
4.98442
4.98442
4.98442
4.98442
4.98442
4.98442
4.98442
4.98442
4.98442
4.98442
4.98442
4.98442
4.98442
4.585331
4.990835
4.984422
4.98442
4.98442
4.98442
4.98442
4.98442
4.98442
4.98442
4.98442
4.98442
4.98442
4.98442
4.98442
4.98442
4.98442
4.98442
4.554855
4.991318
4.984422
4.98442
4.98442
4.98442
4.98442
4.98442
4.98442
4.98442
4.98442
4.98442
4.98442
4.98442
4.98442
4.98442
4.98442
4.98442
4.518524
4.992526
4.984422
4.98442
4.98442
4.98442
4.98442
4.98442
4.98442
4.98442
4.98442
4.98442
4.98442
4.98442
4.98442
4.98442
4.98442
4.98442
4.263138
4.995047
4.984422
4.98442
4.98442
4.98442
4.98442
4.98442
4.98442
4.98442
4.98442
4.98442
4.98442
4.98442
4.98442
4.98442
4.98442
4.98442
4.160592
5.002478
4.984407
4.98442
4.98442
4.98442
4.98442
4.98442
4.98442
4.98442
4.98442
4.98442
4.98442
4.98442
4.98442
4.98442
4.98442
4.98442
4.072078
4.995591
4.984525
4.984411
4.98442
4.98442
4.98442
4.98442
4.98442
4.98442
4.98442
4.98442
4.98442
4.98442
4.98442
4.98442
4.98442
4.98442
3.982874
4.995661
4.984469
4.984454
4.984415
4.98442
4.98442
4.98442
4.98442
4.98442
4.98442
4.98442
4.98442
4.98442
4.98442
4.98442
4.98442
4.98442
3.895303
4.995235
4.984425
4.984438
4.984439
4.984419
4.98442
4.98442
4.98442
4.98442
4.98442
4.98442
4.98442
4.98442
4.98442
4.98442
4.98442
4.98442
3.807823
4.995003
4.984423
4.98442
4.984425
4.984424
4.98442
4.98442
4.98442
4.98442
4.98442
4.98442
4.98442
4.98442
4.98442
4.98442
4.98442
4.98442
3.721198
4.994622
4.984423
4.98442
4.98442
4.984422
4.984421
4.98442
4.98442
4.98442
4.98442
4.98442
4.98442
4.98442
4.98442
4.98442
4.98442
4.98442
3.642157
4.99446
4.984423
4.98442
4.98442
4.98442
4.98442
4.98442
4.98442
4.98442
4.98442
4.98442
4.98442
4.98442
4.98442
4.98442
4.98442
4.98442
3.567455
4.994197
4.984422
4.98442
4.98442
4.98442
4.98442
4.98442
4.98442
4.98442
4.98442
4.98442
4.98442
4.98442
4.98442
4.98442
4.98442
4.98442
3.492832
4.994188
4.984422
4.98442
4.98442
4.98442
4.98442
4.98442
4.98442
4.98442
4.98442
4.98442
4.98442
4.98442
4.98442
4.98442
4.98442
4.98442
3.420203
4.994157
4.984422
4.98442
4.98442
4.98442
4.98442
4.98442
4.98442
4.98442
4.98442
4.98442
4.98442
4.98442
4.98442
4.98442
4.98442
4.98442
3.348497
4.99429
4.984422
4.98442
4.98442
4.98442
4.98442
4.98442
4.98442
4.98442
4.98442
4.98442
4.98442
4.98442
4.98442
4.98442
4.98442
4.98442
3.273955
4.994156
4.984422
4.98442
4.98442
4.98442
4.98442
4.98442
4.98442
4.98442
4.98442
4.98442
4.98442
4.98442
4.98442
4.98442
4.98442
4.98442
3.201014
4.994153
4.984422
4.98442
4.98442
4.98442
4.98442
4.98442
4.98442
4.98442
4.98442
4.98442
4.98442
4.98442
4.98442
4.98442
4.98442
4.98442
3.129046
4.994289
4.984422
4.98442
4.984421
4.98442
4.98442
4.98442
4.98442
4.98442
4.98442
4.98442
4.98442
4.98442
4.98442
4.98442
4.98442
4.98442
3.056049
4.994122
4.984422
4.984464
4.984466
4.984421
4.98442
4.98442
4.98442
4.98442
4.98442
4.98442
4.98442
4.98442
4.98442
4.98442
4.98442
4.98442
2.981211
4.99383
4.98443
4.985998
4.985959
4.984433
4.98442
4.984417
4.984425
4.98442
4.98442
4.98442
4.98442
4.98442
4.98442
4.98442
4.98442
4.98442
2.908914
4.993673
4.984442
4.988704
4.986458
4.984472
4.984421
4.984523
4.984512
4.984423
4.98442
4.98442
4.98442
4.98442
4.98442
4.98442
4.98442
4.98442
2.837855
4.995044
4.984435
4.985702
4.983961
4.984425
4.984422
4.984433
4.98443
4.98442
4.98442
4.98442
4.98442
4.98442
4.98442
4.98442
4.98442
4.98442
2.76031
4.996534
4.984556
4.988738
4.990969
4.984626
4.984426
4.984424
4.98442
4.98442
4.98442
4.98442
4.98442
4.98442
4.98442
4.98442
4.98442
4.98442
2.548854
4.997754
4.985338
5.002907
4.992094
4.996153
4.984438
4.984428
4.984477
4.984438
4.98442
4.98442
4.984421
4.98442
4.98442
4.98442
4.98442
4.98442
2.472482
4.998622
4.987099
4.984897
4.990853
4.986161
4.984455
4.984768
4.984829
4.984456
4.98442
4.984419
4.98442
4.984421
4.98442
4.98442
4.984423
4.98442
2.367038
5.076687
4.989583
4.984764
4.984896
4.984623
4.984536
4.984453
4.984512
4.984408
4.984396
4.984409
4.98444
4.984421
4.984419
4.984421
4.984422
4.98442
1.431403
5.034568
5.016369
4.996773
4.987378
4.986105
4.984912
4.983767
4.98358
4.984152
4.984027
4.984109
4.984434
4.984392
4.984417
4.984425
4.984421
4.98442
0.6627088
5.108538
5.019902
5.001573
4.990494
4.987766
4.984968
4.98254
4.981768
4.982862
4.982085
4.981817
4.982802
4.983474
4.984155
4.984409
4.984421
4.984419
0.1401232
5.352837
5.078166
5.002434
4.991376
4.989358
4.984943
4.983949
4.979859
4.981231
4.979591
4.977672
4.9796
4.979959
4.980743
4.983244
4.984302
4.984409
0.175583
4.952998
5.089228
4.994918
4.992802
4.990844
4.984804
4.983608
4.978087
4.979451
4.976878
4.974959
4.975964
4.975699
4.976944
4.979008
4.9812
4.983621
0.3036743
4.900711
5.052626
5.000071
4.993437
4.993115
4.984598
4.983105
4.976624
4.977572
4.974014
4.974108
4.972118
4.970371
4.972883
4.973966
4.976064
4.97917
0.4952105
5.039255
5.069471
4.995686
4.994191
4.993964
4.98453
4.982571
4.975537
4.975633
4.971038
4.970893
4.968094
4.968094
4.968173
4.968639
4.970425
4.974757
0.5190247
5.091862
5.064941
4.994643
4.999154
4.990975
4.984496
4.982027
4.97481
4.973676
4.968097
4.968025
4.964177
4.964722
4.963351
4.963207
4.966567
4.967986
0.4857876
5.020854
5.15797
5.001446
4.994641
4.991298
4.984796
4.981455
4.974698
4.97198
4.969539
4.964796
4.961107
4.960668
4.958463
4.960083
4.959932
4.963676
0.4841365
4.838929
5.132204
5.062803
5.011922
4.992607
4.984765
4.980917
4.97479
4.969991
4.968592
4.962337
4.961201
4.956712
4.955659
4.954307
4.957046
4.957426
0.493836
4.573093
5.314176
5.069952
4.999401
4.994173
4.984619
4.979685
4.975034
4.9681
4.967264
4.961049
4.958112
4.95508
4.951885
4.952175
4.950776
4.95379
0.5249339
3.634203
5.184622
5.067905
5.017242
5.000306
4.984744
4.979599
4.976141
4.970347
4.964312
4.963746
4.957354
4.953206
4.949336
4.947559
4.947062
4.94823
0.509465
2.431788
5.16648
5.13764
5.112501
4.993757
4.984418
4.981549
4.970608
4.973501
4.968716
4.961553
4.957973
4.953086
4.947059
4.946581
4.943923
4.944487
0.5082946
1.674623
4.823492
5.208236
5.067006
5.046924
4.978806
4.964304
4.958696
4.95298
4.947475
4.944585
4.943455
4.941076
0.4856868
0.1750794
5.002472
4.974793
4.96285
4.953803
4.947565
4.941824
4.940875
4.940581
0.4843207
5.040394
4.965852
4.952851
4.947518
4.943324
4.938696
4.937146
4.964607
4.950591
4.947707
4.942038
4.937465
4.935442
4.970402
4.949581
4.942658
4.937797
4.93482
5.033469
4.95472
4.941881
4.936911
4.933796
4.980495
4.950891
4.942444
4.936716
4.933674
4.955998
4.949425
4.94187
4.936503
4.933433
4.927341
4.950289
4.941864
4.936349
4.933352
5.011998
4.94982
4.940411
4.936947
4.933933
5.032227
4.964596
4.948686
4.941336
4.936499
4.936012
0.4843446
4.984173
4.95567
4.94943
4.941364
4.937113
4.935377
0.4880294
0.7752834
5.009257
4.964223
4.952109
4.945787
4.941632
4.938926
4.937312
0.4947087
1.495775
4.265882
5.025946
5.023122
4.969039
4.963753
4.959339
4.94739
4.942321
4.939307
4.939803
0.5100855
2.003306
5.108319
5.139995
5.036824
4.994289
4.986385
4.990137
5.062133
4.995029
4.9739
4.96026
4.956075
4.952702
4.947621
4.943166
4.942255
4.941823
0.5204241
3.088612
5.326573
5.059372
5.020493
4.992754
4.983087
4.9791
4.978259
4.973672
4.963192
4.960708
4.957668
4.950069
4.947045
4.945934
4.943814
4.945791
0.5225855
4.210189
5.146535
5.039673
5.008754
5.000266
4.982794
4.977497
4.974117
4.971043
4.963861
4.961041
4.955761
4.953486
4.949252
4.947222
4.948345
4.948316
0.4880065
4.735704
5.314015
5.054854
4.998038
4.991868
4.982882
4.978797
4.972945
4.96823
4.965282
4.959076
4.957387
4.953984
4.952773
4.951957
4.95083
4.954218
0.4783411
4.923144
5.075419
5.098232
5.009461
4.989671
4.982539
4.979211
4.972748
4.966964
4.966966
4.961655
4.960104
4.956859
4.956066
4.954342
4.956862
4.9579
0.485052
5.02569
5.087137
5.006215
4.99466
4.989408
4.982506
4.979762
4.972601
4.970671
4.967574
4.963944
4.960232
4.960191
4.956631
4.96013
4.960823
4.964328
0.4972685
5.14339
5.0642
4.993772
4.998696
4.989243
4.982549
4.980357
4.973169
4.972524
4.969355
4.967106
4.964165
4.965003
4.963637
4.965326
4.966778
4.970176
0.4448829
5.16377
5.088835
4.994778
4.994358
4.999466
4.982735
4.981032
4.974202
4.974406
4.971401
4.970411
4.967799
4.966142
4.968415
4.967691
4.972389
4.974809
0.2224478
5.08119
5.192316
5.003223
4.991712
4.994372
4.9831
4.981743
4.975675
4.976622
4.971661
4.974043
4.972114
4.971598
4.973596
4.974807
4.978012
4.980868
0.1478737
4.964594
5.134327
4.992401
4.991101
4.989561
4.983551
4.982509
4.977502
4.978823
4.974166
4.975518
4.976256
4.976258
4.977285
4.980048
4.982563
4.984078
0.3324548
5.291262
5.043807
4.99096
4.989699
4.988185
4.984039
4.982072
4.979633
4.98092
4.979429
4.979479
4.980164
4.98082
4.982183
4.983929
4.984216
4.984377
0.6520462
5.383427
5.024488
4.989811
4.988508
4.986766
4.984415
4.982527
4.98195
4.98288
4.982354
4.983116
4.983597
4.984058
4.9842
4.984364
4.984406
4.984418
1.974234
5.127557
5.017956
4.99027
4.98615
4.985511
4.984767
4.984179
4.984128
4.984376
4.98431
4.984362
4.984336
4.984366
4.9844
4.98442
4.98442
4.98442
2.244289
4.999121
4.987923
4.98578
4.985312
4.984557
4.984531
4.984403
4.984319
4.984404
4.984394
4.984409
4.984422
4.984418
4.984419
4.984421
4.984427
4.98442
2.376973
5.026001
4.984891
4.984672
4.989071
4.982601
4.984492
4.984705
4.984732
4.984454
4.984419
4.984419
4.98442
4.98442
4.98442
4.98442
4.984429
4.98442
2.539984
5.146631
4.986883
5.015799
4.997366
4.994908
4.98444
4.984442
4.98446
4.984458
4.98442
4.98442
4.98442
4.98442
4.98442
4.98442
4.98442
4.98442
2.75876
5.094684
4.985893
4.999422
4.995794
4.984887
4.984427
4.984427
4.984421
4.984421
4.98442
4.98442
4.98442
4.98442
4.98442
4.98442
4.98442
4.98442
2.845657
5.004123
4.984645
4.986177
4.985464
4.984429
4.984423
4.984411
4.984396
4.98442
4.98442
4.98442
4.98442
4.98442
4.98442
4.98442
4.98442
4.98442
2.926401
5.005536
4.984434
4.987866
4.985601
4.98443
4.984421
4.98462
4.98458
4.98442
4.98442
4.98442
4.98442
4.98442
4.98442
4.98442
4.98442
4.98442
3.005651
5.00511
4.984438
4.987297
4.988368
4.984428
4.98442
4.984436
4.984425
4.98442
4.98442
4.98442
4.98442
4.98442
4.98442
4.98442
4.98442
4.98442
3.084138
5.003589
4.984425
4.984508
4.984552
4.98442
4.98442
4.98442
4.98442
4.98442
4.98442
4.98442
4.98442
4.98442
4.98442
4.98442
4.98442
4.98442
3.158572
5.002441
4.984423
4.984421
4.984424
4.98442
4.98442
4.98442
4.98442
4.98442
4.98442
4.98442
4.98442
4.98442
4.98442
4.98442
4.98442
4.98442
3.235494
5.001359
4.984423
4.98442
4.984421
4.98442
4.98442
4.98442
4.98442
4.98442
4.98442
4.98442
4.98442
4.98442
4.98442
4.98442
4.98442
4.98442
3.310914
5.000405
4.984423
4.98442
4.98442
4.98442
4.98442
4.98442
4.98442
4.98442
4.98442
4.98442
4.98442
4.98442
4.98442
4.98442
4.98442
4.98442
3.383806
4.999416
4.984422
4.98442
4.98442
4.98442
4.98442
4.98442
4.98442
4.98442
4.98442
4.98442
4.98442
4.98442
4.98442
4.98442
4.98442
4.98442
3.455852
4.998797
4.984423
4.98442
4.98442
4.98442
4.98442
4.98442
4.98442
4.98442
4.98442
4.98442
4.98442
4.98442
4.98442
4.98442
4.98442
4.98442
3.531732
4.997981
4.984423
4.98442
4.98442
4.98442
4.98442
4.98442
4.98442
4.98442
4.98442
4.98442
4.98442
4.98442
4.98442
4.98442
4.98442
4.98442
3.604519
4.99774
4.984423
4.98442
4.98442
4.98442
4.98442
4.98442
4.98442
4.98442
4.98442
4.98442
4.98442
4.98442
4.98442
4.98442
4.98442
4.98442
3.680994
4.997428
4.984423
4.98442
4.98442
4.98442
4.98442
4.98442
4.98442
4.98442
4.98442
4.98442
4.98442
4.98442
4.98442
4.98442
4.98442
4.98442
3.757157
4.997434
4.984423
4.98442
4.98442
4.984421
4.984421
4.98442
4.98442
4.98442
4.98442
4.98442
4.98442
4.98442
4.98442
4.98442
4.98442
4.98442
3.840149
4.996861
4.984423
4.98442
4.984424
4.984424
4.98442
4.98442
4.98442
4.98442
4.98442
4.98442
4.98442
4.98442
4.98442
4.98442
4.98442
4.98442
3.930122
4.995991
4.984424
4.984431
4.984436
4.984421
4.98442
4.98442
4.98442
4.98442
4.98442
4.98442
4.98442
4.98442
4.98442
4.98442
4.98442
4.98442
4.020819
4.99589
4.984454
4.984457
4.984426
4.98442
4.98442
4.98442
4.98442
4.98442
4.98442
4.98442
4.98442
4.98442
4.98442
4.98442
4.98442
4.98442
4.113877
4.994817
4.984535
4.984427
4.98442
4.98442
4.98442
4.98442
4.98442
4.98442
4.98442
4.98442
4.98442
4.98442
4.98442
4.98442
4.98442
4.98442
4.197821
4.997981
4.984438
4.98442
4.98442
4.98442
4.98442
4.98442
4.98442
4.98442
4.98442
4.98442
4.98442
4.98442
4.98442