/*--------------------------------*- C++ -*----------------------------------*\
| =========                 |                                                 |
| \\      /  F ield         | OpenFOAM: The Open Source CFD Toolbox           |
|  \\    /   O peration     | Version:  2206                                  |
|   \\  /    A nd           | Website:  www.openfoam.com                      |
|    \\/     M anipulation  |                                                 |
\*---------------------------------------------------------------------------*/
FoamFile
{
    version     2.0;
    format      ascii;
    arch        "LSB;label=32;scalar=64";
    class       volScalarField;
    location    "1.4";
    object      omega.b;
}
// * * * * * * * * * * * * * * * * * * * * * * * * * * * * * * * * * * * * * //

dimensions      [0 0 -1 0 0 0 0];

internalField   nonuniform List<scalar> 
13078
(
6.495683
0.5209988
0.4513266
0.4515019
0.4526062
0.453883
0.4553588
6.57947
0.5099075
0.4508036
0.4514327
0.4525673
0.4538522
0.4553269
6.585492
0.5086519
0.450719
0.4513594
0.4525174
0.4538131
0.4552902
6.591679
0.5079703
0.4506675
0.4513044
0.452471
0.4537734
0.4552521
6.598133
0.5077317
0.4506388
0.4512804
0.4524329
0.4537358
0.4552147
6.604802
0.5076273
0.4506257
0.4512663
0.4524187
0.4537033
0.4551787
6.611848
0.5076281
0.4506224
0.4512539
0.4524091
0.4536931
0.4551465
6.619131
0.507684
0.4506234
0.4512465
0.4524032
0.4536864
0.4551379
6.626655
0.5077349
0.4506233
0.4512443
0.4523996
0.4536813
0.4551319
6.634488
0.5078106
0.4506243
0.4512431
0.4523969
0.4536773
0.4551268
6.642682
0.5079021
0.4506254
0.4512422
0.4523948
0.4536739
0.4551222
6.651186
0.5080045
0.4506262
0.4512413
0.4523928
0.4536708
0.4551179
6.660084
0.5081158
0.4506268
0.4512403
0.4523911
0.4536679
0.4551138
6.669375
0.5082346
0.4506271
0.4512388
0.4523886
0.4536648
0.4551095
6.679072
0.5083597
0.4506274
0.4512314
0.4523774
0.4536607
0.4551053
6.689206
0.5084903
0.4506274
0.451222
0.4523683
0.453657
0.4551008
6.69983
0.5086253
0.4506271
0.4512194
0.4523652
0.4536534
0.4550962
6.710875
0.5087641
0.4506268
0.4512171
0.4523621
0.4536498
0.4550914
6.722538
0.5089075
0.4506261
0.4512147
0.4523585
0.453645
0.4550863
6.734686
0.5090537
0.4506252
0.4512114
0.4523458
0.4536267
0.4550798
6.747501
0.5092042
0.4506242
0.4512077
0.4523302
0.4536118
0.4550731
6.760848
0.5093572
0.4506231
0.4512047
0.4523248
0.4536059
0.455067
6.774919
0.509513
0.4506216
0.4512013
0.4523202
0.4535994
0.4550592
6.789678
0.5096718
0.45062
0.4511977
0.4523141
0.4535799
0.4550315
6.805169
0.5098331
0.4506183
0.4511938
0.4523076
0.4535561
0.4550086
6.821431
0.5099973
0.450616
0.4511895
0.4523016
0.4535467
0.4549982
6.838694
0.5101596
0.4506136
0.4511849
0.4522951
0.453538
0.4549872
6.860782
0.5103639
0.4506118
0.45118
0.4522879
0.4535275
0.4549567
6.889512
0.5105028
0.4506083
0.4511748
0.4522801
0.4535157
0.4549189
6.964901
0.5112925
0.4506153
0.451169
0.4522718
0.4535047
0.4549029
7.077898
0.5119043
0.4506021
0.4511626
0.4522626
0.4534925
0.4548852
7.116327
0.5132051
0.4505743
0.4511537
0.4522524
0.4534791
0.4548661
7.153721
0.5148836
0.4505986
0.4511362
0.4522393
0.4534643
0.4548479
7.186841
0.5153046
0.4505997
0.4511229
0.4522246
0.4534469
0.4548276
7.221337
0.5157361
0.4505938
0.4511017
0.4522025
0.4534231
0.4548036
7.257501
0.5162287
0.4505898
0.4510657
0.452161
0.4533858
0.4547725
7.2953
0.5167643
0.4505851
0.4510475
0.4521053
0.4533595
0.4547375
7.335031
0.5173346
0.4505772
0.4510287
0.4520744
0.453306
0.4546886
7.385165
0.5179612
0.4505649
0.4510019
0.452034
0.4531989
0.4546446
7.498021
0.5196831
0.4505476
0.4509452
0.4519541
0.4530849
0.4545168
7.67372
0.5221725
0.4504434
0.4508114
0.4517746
0.4528831
0.4542422
7.74889
0.5249749
0.4503089
0.4505548
0.4514833
0.4526885
0.4543169
7.810542
0.5261417
0.4500045
0.4502041
0.4512822
0.4527434
0.4547243
7.878357
0.5273734
0.4496591
0.4499012
0.451362
0.4531768
0.455203
7.986775
0.529701
0.4494378
0.4499345
0.4515335
0.4535583
0.4557481
8.166372
0.5325833
0.4493965
0.4501665
0.4517858
0.4536174
0.4559014
8.255054
0.5359899
0.4495615
0.4503199
0.4518665
0.4536223
0.4555281
8.326699
0.537411
0.4496544
0.4502638
0.4517283
0.4534273
0.4552401
8.39579
0.5384691
0.4496663
0.4501361
0.4514513
0.4530283
0.4547155
8.465287
0.5389661
0.4495953
0.4500288
0.4513222
0.4526681
0.4541797
8.568701
0.5418667
0.4494577
0.4499544
0.4511813
0.4523928
0.4537561
8.827361
0.5463304
0.4494008
0.4499247
0.4510759
0.4521758
0.4533122
8.930056
0.5482491
0.4492832
0.4496073
0.4508239
0.4520081
0.4530739
8.978665
0.5487923
0.4490541
0.4494181
0.45073
0.4519874
0.4529881
9.005196
0.5493049
0.4488406
0.4492276
0.4505804
0.4518225
0.4527846
9.014984
0.5504689
0.4486963
0.4490357
0.4503417
0.4515256
0.45252
9.015013
0.5502768
0.4486694
0.4490257
0.4503523
0.4515216
0.4524547
9.005234
0.5488782
0.4488013
0.4492213
0.4505719
0.4517917
0.4527363
8.978706
0.5482457
0.4489944
0.4493946
0.4506868
0.4519076
0.4528851
8.930124
0.547631
0.4491582
0.4495164
0.4506984
0.4518385
0.4528928
8.827442
0.5457595
0.4492202
0.4497296
0.4508509
0.4519217
0.4530152
8.568778
0.5414867
0.4492935
0.4497979
0.4509793
0.4521193
0.4533974
8.465333
0.5386337
0.4493998
0.4497928
0.4510358
0.4522931
0.4537021
8.395818
0.5380584
0.4494461
0.4498423
0.4510989
0.4525745
0.4541769
8.326702
0.5369121
0.4494322
0.4499477
0.4513313
0.4529709
0.454661
8.255054
0.5354717
0.4493713
0.4500329
0.4514766
0.4531119
0.454928
8.166372
0.5321166
0.449257
0.4499201
0.451413
0.4531025
0.4552216
7.986775
0.5293234
0.4493383
0.4497587
0.4512181
0.4530587
0.4550656
7.878357
0.5271641
0.4495847
0.4497917
0.4511124
0.4527638
0.4546798
7.810542
0.5260801
0.4499492
0.4501124
0.4511254
0.4524804
0.4543319
7.749104
0.5250345
0.4502729
0.4504857
0.4513959
0.4525741
0.4541107
7.678123
0.522783
0.4504377
0.4507673
0.4517278
0.4528288
0.4541619
7.53547
0.520755
0.4505382
0.4509226
0.4519295
0.4530536
0.4544748
7.439012
0.5192747
0.4505631
0.450989
0.4520165
0.4531797
0.4546227
7.388639
0.518542
0.4505765
0.4510161
0.4520617
0.4532958
0.4546752
7.344496
0.5175275
0.4505787
0.4510391
0.4521123
0.4533553
0.4547279
7.300795
0.516678
0.4505881
0.4510603
0.4521629
0.4533831
0.4547665
7.237691
0.5160514
0.4505952
0.4510971
0.4521951
0.453418
0.4547979
7.19073
0.5154243
0.4505988
0.4511193
0.4522203
0.4534423
0.4548228
7.154754
0.5149962
0.4505982
0.4511332
0.4522359
0.4534607
0.4548443
7.116392
0.5132927
0.4505738
0.4511514
0.4522498
0.4534763
0.4548635
7.077898
0.5119816
0.4506019
0.4511606
0.4522605
0.4534904
0.4548832
6.964901
0.5113564
0.4506151
0.4511676
0.4522701
0.4535032
0.4549014
6.889512
0.5105624
0.4506082
0.4511736
0.4522789
0.4535145
0.4549177
6.860782
0.510417
0.4506117
0.451179
0.4522869
0.4535264
0.4549557
6.838694
0.5102072
0.4506136
0.4511841
0.4522942
0.4535371
0.4549865
6.821431
0.51004
0.450616
0.4511889
0.4523008
0.453546
0.4549977
6.805169
0.5098714
0.4506183
0.4511932
0.452307
0.4535556
0.4550082
6.789678
0.509706
0.4506202
0.4511971
0.4523136
0.4535795
0.4550311
6.774919
0.5095434
0.4506218
0.4512009
0.4523198
0.453599
0.455059
6.760848
0.509384
0.4506232
0.4512044
0.4523245
0.4536057
0.4550667
6.747501
0.5092276
0.4506243
0.4512075
0.45233
0.4536117
0.4550729
6.734686
0.509074
0.4506253
0.4512113
0.4523457
0.4536267
0.4550798
6.722538
0.5089246
0.4506263
0.4512146
0.4523585
0.453645
0.4550865
6.710875
0.5087781
0.450627
0.4512171
0.4523621
0.4536498
0.4550915
6.69983
0.5086363
0.4506274
0.4512194
0.4523652
0.4536534
0.4550962
6.689206
0.5084981
0.4506277
0.4512222
0.4523684
0.453657
0.4551009
6.679072
0.5083641
0.4506278
0.4512316
0.4523775
0.4536608
0.4551054
6.669375
0.5082353
0.4506277
0.4512391
0.4523888
0.4536649
0.4551096
6.660084
0.508112
0.4506275
0.4512408
0.4523913
0.4536679
0.4551137
6.651186
0.5079952
0.4506269
0.4512419
0.452393
0.4536707
0.4551176
6.642682
0.5078856
0.4506263
0.4512428
0.4523948
0.4536735
0.4551215
6.634488
0.5077847
0.4506253
0.4512436
0.4523967
0.4536765
0.4551257
6.626655
0.5076955
0.4506243
0.4512445
0.4523986
0.4536797
0.45513
6.619131
0.5076246
0.4506239
0.4512458
0.452401
0.4536836
0.4551351
6.611848
0.5075384
0.4506213
0.4512512
0.452405
0.4536886
0.4551423
6.604802
0.5074907
0.4506208
0.4512599
0.4524112
0.4536963
0.4551728
6.598133
0.507521
0.4506255
0.4512672
0.4524205
0.4537257
0.455207
6.591679
0.507623
0.4506382
0.4512808
0.4524522
0.4537599
0.4552429
6.585492
0.5079367
0.450664
0.4513209
0.4524916
0.4537971
0.4552804
6.57947
0.508156
0.4507076
0.4513767
0.4525375
0.4538368
0.4553187
6.495683
0.5064694
0.4507816
0.4514539
0.4525915
0.4538783
0.455357
0.4570991
0.4592892
0.4622152
0.4650163
0.4700055
0.4779285
0.5003471
0.4570622
0.4592415
0.4621524
0.4649417
0.4699139
0.4777973
0.5030476
0.4570228
0.4591934
0.4620919
0.4659084
0.4698306
0.4776696
0.5024769
0.4569825
0.4591448
0.4620281
0.4647921
0.4697331
0.4775423
0.5019679
0.4569431
0.4590961
0.4619668
0.4647122
0.469642
0.4774154
0.5015512
0.4569041
0.4590474
0.4619043
0.4646364
0.469552
0.4772894
0.5011481
0.4568662
0.4589993
0.4618423
0.4645631
0.4695271
0.4771652
0.5007571
0.4568315
0.4589517
0.4617809
0.4644913
0.4695038
0.4770424
0.5003755
0.4568227
0.4589077
0.4617223
0.4644181
0.4694322
0.4769304
0.5000016
0.4568163
0.4588966
0.4616677
0.4643451
0.4693613
0.4768191
0.4996351
0.4568104
0.4588885
0.4616535
0.4642744
0.4692906
0.4767084
0.499275
0.4568046
0.4588802
0.4616426
0.464259
0.4692196
0.4765977
0.4989201
0.456799
0.458872
0.4616315
0.4642454
0.4692075
0.476485
0.4985661
0.4567931
0.4588636
0.46162
0.4642313
0.469194
0.476463
0.4981781
0.4567873
0.4588549
0.4616081
0.4642166
0.4691798
0.4764381
0.4981682
0.4567811
0.4588459
0.4615957
0.4642013
0.4691647
0.4764116
0.4977618
0.4567748
0.4588364
0.461583
0.4641851
0.4691427
0.476384
0.4972595
0.4567683
0.4588269
0.4615695
0.4641607
0.4689269
0.4763547
0.4967486
0.4567614
0.4588175
0.4615558
0.4641431
0.4688991
0.4763248
0.4963128
0.4567542
0.4588076
0.4615414
0.4641249
0.4688762
0.4762934
0.4958217
0.4567467
0.4587971
0.4615264
0.4641058
0.4688524
0.4762609
0.4953106
0.4567385
0.4587861
0.4615108
0.4640857
0.4688276
0.4762268
0.4949455
0.4567301
0.4587744
0.4614932
0.4640664
0.4687972
0.4761913
0.494609
0.4567191
0.4587621
0.4614778
0.4650134
0.4686025
0.476136
0.494314
0.4567078
0.458749
0.4614563
0.4640282
0.4684944
0.4760915
0.4940792
0.4566972
0.4587353
0.4614387
0.463995
0.4684575
0.4760502
0.4938483
0.4566835
0.4587197
0.461417
0.4639683
0.4684193
0.476
0.4936708
0.4566398
0.4587016
0.4613974
0.4639403
0.4683666
0.4755742
0.4934968
0.4566053
0.4581382
0.4606442
0.4639092
0.4683188
0.4754131
0.4933647
0.4565916
0.4581186
0.460617
0.4638765
0.4682751
0.4753534
0.4932672
0.4565259
0.4580516
0.4605924
0.4638435
0.4682291
0.4750685
0.4931357
0.4564777
0.4579811
0.4605655
0.4638077
0.4681791
0.4747267
0.4930354
0.4564514
0.4578977
0.4605265
0.4637694
0.4681264
0.4746419
0.4929756
0.4564255
0.4578573
0.4604203
0.4637288
0.4680706
0.4745142
0.4909636
0.4563971
0.4578308
0.4603295
0.463679
0.468012
0.4744139
0.4910213
0.456366
0.457807
0.4601456
0.4636121
0.467955
0.4743267
0.4874133
0.4563302
0.4577859
0.4600812
0.4634022
0.4679145
0.4742398
0.488794
0.4562827
0.4577699
0.4600388
0.4633393
0.4678356
0.4743417
0.4882765
0.4562261
0.4577517
0.4600212
0.4632058
0.4680081
0.4751977
0.4863736
0.4561537
0.457788
0.4602258
0.4638104
0.4690734
0.4763611
0.4864413
0.4563288
0.457946
0.4609658
0.4650505
0.4700241
0.4768004
0.4882483
0.456582
0.4584119
0.4621239
0.4662998
0.4707654
0.4760575
0.4871197
0.4571886
0.4591944
0.462782
0.466654
0.4710391
0.4754644
0.4858901
0.4579951
0.4600058
0.4635022
0.4672286
0.4711025
0.4757527
0.4860885
0.4583242
0.4605256
0.4637871
0.4674649
0.4710489
0.4759723
0.4865495
0.4583604
0.4608407
0.4640904
0.4672649
0.4708262
0.4751422
0.4861464
0.4580051
0.4607081
0.4639862
0.4670305
0.4700011
0.4744974
0.4833172
0.4576432
0.4604786
0.4634214
0.4663277
0.4695398
0.4732659
0.4797518
0.4569703
0.4596856
0.4628056
0.4658822
0.4687127
0.4729191
0.4787409
0.4563063
0.4590787
0.4624349
0.4653909
0.4683759
0.4720469
0.477866
0.455965
0.4582675
0.4613307
0.4644002
0.4676567
0.4712218
0.4758652
0.4553239
0.4575479
0.4603221
0.4625914
0.465998
0.4702822
0.475498
0.4546368
0.4567
0.4595539
0.4619739
0.4646149
0.4685384
0.4734356
0.4544753
0.4565569
0.4590858
0.4611944
0.4634259
0.4664386
0.4706831
0.4542342
0.456357
0.4586673
0.4609733
0.4626025
0.4635762
0.4690435
0.4538993
0.4560903
0.4583684
0.4602767
0.4617382
0.4632791
0.4538306
0.4559024
0.4576763
0.4598182
0.46099
0.4623011
0.4541093
0.4559717
0.4583044
0.4603607
0.4617068
0.4635403
0.4542901
0.4560218
0.458324
0.4602555
0.4623814
0.4645817
0.468319
0.4544567
0.456147
0.4585507
0.4610192
0.4633433
0.4672435
0.473379
0.4549356
0.4565982
0.4592634
0.4620661
0.4648474
0.4686665
0.4742148
0.4554597
0.4572866
0.4605895
0.4628732
0.4664337
0.469934
0.4750659
0.4557
0.4573297
0.4614673
0.4640842
0.4668828
0.470772
0.4763928
0.4563305
0.4583508
0.4617453
0.4645999
0.4676892
0.4714621
0.4774185
0.456951
0.4589
0.462318
0.4652285
0.4683528
0.4717711
0.4786379
0.4572877
0.4594177
0.4627318
0.4659013
0.4689423
0.4728854
0.4806102
0.4575513
0.4596909
0.4629589
0.466126
0.4697205
0.4736659
0.4836554
0.4575341
0.4599002
0.4629697
0.4662981
0.4699826
0.4749006
0.4846892
0.4572038
0.4596888
0.4627591
0.4663985
0.4702488
0.475095
0.484905
0.4566427
0.4591102
0.4623124
0.4658931
0.470492
0.4749279
0.4853783
0.4561951
0.4583931
0.4614541
0.465734
0.4702486
0.4751579
0.4857492
0.4561113
0.458161
0.4609368
0.465111
0.4698701
0.4759618
0.4874226
0.456111
0.4578257
0.4603331
0.4640014
0.4688948
0.476179
0.4873772
0.4562015
0.4578148
0.4600198
0.4632774
0.4685399
0.4756975
0.4859581
0.4562674
0.4578162
0.4600064
0.4631386
0.4679406
0.474747
0.4862108
0.456319
0.4578338
0.4600536
0.4635409
0.4678649
0.4742316
0.4881332
0.4563577
0.4578411
0.46011
0.463491
0.4679196
0.4742639
0.4886717
0.4563907
0.4578504
0.4601976
0.4636386
0.4679753
0.4743576
0.490957
0.4564207
0.4578578
0.4603603
0.4637016
0.4680355
0.4744589
0.4911698
0.4564478
0.457911
0.4605006
0.4637453
0.4680941
0.4745817
0.491823
0.456475
0.4579693
0.4605424
0.4637857
0.4681495
0.4746778
0.4930549
0.4565238
0.4580138
0.460577
0.4638235
0.4682015
0.4747887
0.4930982
0.4565903
0.4581138
0.4606034
0.4638586
0.4682506
0.4753142
0.4932324
0.4566042
0.4581495
0.4606285
0.4638904
0.4682957
0.475382
0.4933313
0.456639
0.4587008
0.4613968
0.4639277
0.4683402
0.475445
0.493424
0.4566829
0.4587191
0.4614164
0.4639568
0.468395
0.4758347
0.4935768
0.4566968
0.4587349
0.4614378
0.4639829
0.4684387
0.4760288
0.4937491
0.4567074
0.4587488
0.4614575
0.4640077
0.4684766
0.4760716
0.4939428
0.4567188
0.458762
0.4614763
0.4640315
0.4685169
0.4761123
0.4941556
0.4567299
0.4587743
0.4614939
0.4640545
0.4687294
0.4761671
0.4944279
0.4567384
0.458786
0.4615107
0.4640763
0.4688155
0.4762106
0.4946944
0.4567465
0.4587972
0.4615266
0.4640968
0.468841
0.4762455
0.4950368
0.4567542
0.4588077
0.4615417
0.4641165
0.4688657
0.4762789
0.4953996
0.4567616
0.4588177
0.4615562
0.4641352
0.4688889
0.4763109
0.4958237
0.4567684
0.4588272
0.4615699
0.464153
0.4689111
0.4763416
0.4963406
0.456775
0.4588367
0.4615834
0.464175
0.4690226
0.4763714
0.4968323
0.4567812
0.4588461
0.4615961
0.4641946
0.4691581
0.4764
0.4973061
0.4567873
0.458855
0.4616084
0.4642104
0.4691733
0.4764273
0.4977434
0.4567931
0.4588636
0.4616202
0.4642257
0.469188
0.476453
0.4981951
0.4567988
0.4588718
0.4616315
0.4642402
0.4692017
0.4764773
0.4984414
0.4568042
0.4588798
0.4616425
0.4642544
0.4692151
0.4765446
0.4987844
0.4568096
0.4588878
0.4616531
0.4642681
0.4692563
0.4766549
0.4991441
0.4568151
0.4588956
0.461667
0.4643112
0.4693263
0.4767656
0.4995037
0.4568209
0.4589062
0.4617213
0.4643839
0.4693971
0.4768766
0.4998667
0.4568289
0.4589495
0.4617793
0.4644573
0.469468
0.4769881
0.5002356
0.4568626
0.4589965
0.4618402
0.4645312
0.4695363
0.4771049
0.5006109
0.4568996
0.459044
0.4619018
0.4646016
0.4695101
0.4772286
0.500994
0.4569376
0.4590921
0.4619638
0.4646766
0.469597
0.4773534
0.5013866
0.4569764
0.4591409
0.4620263
0.4647518
0.4696871
0.4774796
0.5017901
0.4570169
0.4591901
0.4620891
0.4648274
0.4697776
0.4776063
0.5022378
0.4570577
0.4592391
0.4621518
0.4649026
0.4698685
0.4777336
0.5027638
0.4570982
0.4592887
0.4622147
0.4649778
0.4699596
0.4778629
0.5037718
4.490321
5.014304
4.97536
4.975336
4.975336
4.975336
4.975336
4.975336
4.975336
4.975336
4.975336
4.975336
4.975336
4.975336
4.975336
4.975336
4.975336
4.975336
4.786088
4.980838
4.975345
4.975342
4.975342
4.975342
4.975342
4.975342
4.975342
4.975342
4.975342
4.975342
4.975342
4.975342
4.975342
4.975342
4.975342
4.975342
4.770655
4.981121
4.975344
4.975342
4.975342
4.975342
4.975342
4.975342
4.975342
4.975342
4.975342
4.975342
4.975342
4.975342
4.975342
4.975342
4.975342
4.975342
4.756656
4.980995
4.975344
4.975342
4.975342
4.975342
4.975342
4.975342
4.975342
4.975342
4.975342
4.975342
4.975342
4.975342
4.975342
4.975342
4.975342
4.975342
4.740737
4.980937
4.975344
4.975342
4.975342
4.975342
4.975342
4.975342
4.975342
4.975342
4.975342
4.975342
4.975342
4.975342
4.975342
4.975342
4.975342
4.975342
4.722589
4.981007
4.975344
4.975342
4.975342
4.975342
4.975342
4.975342
4.975342
4.975342
4.975342
4.975342
4.975342
4.975342
4.975342
4.975342
4.975342
4.975342
4.702333
4.981115
4.975344
4.975342
4.975342
4.975342
4.975342
4.975342
4.975342
4.975342
4.975342
4.975342
4.975342
4.975342
4.975342
4.975342
4.975342
4.975342
4.680139
4.981232
4.975344
4.975342
4.975342
4.975342
4.975342
4.975342
4.975342
4.975342
4.975342
4.975342
4.975342
4.975342
4.975342
4.975342
4.975342
4.975342
4.65616
4.981352
4.975344
4.975342
4.975342
4.975342
4.975342
4.975342
4.975342
4.975342
4.975342
4.975342
4.975342
4.975342
4.975342
4.975342
4.975342
4.975342
4.63056
4.98147
4.975344
4.975342
4.975342
4.975342
4.975342
4.975342
4.975342
4.975342
4.975342
4.975342
4.975342
4.975342
4.975342
4.975342
4.975342
4.975342
4.603449
4.981605
4.975344
4.975342
4.975342
4.975342
4.975342
4.975342
4.975342
4.975342
4.975342
4.975342
4.975342
4.975342
4.975342
4.975342
4.975342
4.975342
4.57483
4.981835
4.975345
4.975342
4.975342
4.975342
4.975342
4.975342
4.975342
4.975342
4.975342
4.975342
4.975342
4.975342
4.975342
4.975342
4.975342
4.975342
4.543889
4.982351
4.975345
4.975342
4.975342
4.975342
4.975342
4.975342
4.975342
4.975342
4.975342
4.975342
4.975342
4.975342
4.975342
4.975342
4.975342
4.975342
4.508205
4.983634
4.975345
4.975342
4.975342
4.975342
4.975342
4.975342
4.975342
4.975342
4.975342
4.975342
4.975342
4.975342
4.975342
4.975342
4.975342
4.975342
4.249328
4.986124
4.975345
4.975342
4.975343
4.975342
4.975342
4.975342
4.975342
4.975342
4.975342
4.975342
4.975342
4.975342
4.975342
4.975342
4.975342
4.975342
4.148519
4.993613
4.97533
4.975342
4.975343
4.975342
4.975342
4.975342
4.975342
4.975342
4.975342
4.975342
4.975342
4.975342
4.975342
4.975342
4.975342
4.975342
4.060765
4.986657
4.975448
4.975334
4.975343
4.975342
4.975342
4.975342
4.975342
4.975342
4.975342
4.975342
4.975342
4.975342
4.975342
4.975342
4.975342
4.975342
3.971802
4.986716
4.975392
4.975377
4.975338
4.975342
4.975342
4.975342
4.975342
4.975342
4.975342
4.975342
4.975342
4.975342
4.975342
4.975342
4.975342
4.975342
3.884436
4.986289
4.975348
4.975361
4.975362
4.975342
4.975342
4.975342
4.975342
4.975342
4.975342
4.975342
4.975342
4.975342
4.975342
4.975342
4.975342
4.975342
3.79716
4.98606
4.975346
4.975343
4.975347
4.975347
4.975342
4.975342
4.975342
4.975342
4.975342
4.975342
4.975342
4.975342
4.975342
4.975342
4.975342
4.975342
3.710753
4.98568
4.975346
4.975342
4.975343
4.975344
4.975343
4.975342
4.975342
4.975342
4.975342
4.975342
4.975342
4.975342
4.975342
4.975342
4.975342
4.975342
3.631894
4.985522
4.975346
4.975342
4.975342
4.975342
4.975343
4.975343
4.975342
4.975342
4.975342
4.975342
4.975342
4.975342
4.975342
4.975342
4.975342
4.975342
3.557351
4.985256
4.975345
4.975342
4.975342
4.975342
4.975342
4.975343
4.975342
4.975342
4.975342
4.975342
4.975342
4.975342
4.975342
4.975342
4.975342
4.975342
3.482885
4.985246
4.975345
4.975342
4.975343
4.975342
4.975342
4.975342
4.975342
4.975342
4.975342
4.975342
4.975342
4.975342
4.975342
4.975342
4.975342
4.975342
3.4104
4.985212
4.975345
4.975342
4.975343
4.975342
4.975342
4.975342
4.975342
4.975342
4.975342
4.975342
4.975342
4.975342
4.975342
4.975342
4.975342
4.975342
3.33883
4.985343
4.975345
4.975342
4.975343
4.975342
4.975342
4.975342
4.975342
4.975342
4.975342
4.975342
4.975342
4.975342
4.975342
4.975342
4.975342
4.975342
3.264441
4.985205
4.975345
4.975342
4.975343
4.975342
4.975342
4.975342
4.975342
4.975342
4.975342
4.975342
4.975342
4.975342
4.975342
4.975342
4.975342
4.975342
3.191643
4.9852
4.975345
4.975342
4.975343
4.975342
4.975342
4.975342
4.975342
4.975342
4.975342
4.975342
4.975342
4.975342
4.975342
4.975342
4.975342
4.975342
3.119817
4.985334
4.975345
4.975343
4.975344
4.975343
4.975343
4.975342
4.975343
4.975342
4.975342
4.975342
4.975342
4.975342
4.975342
4.975342
4.975342
4.975342
3.046965
4.985161
4.975345
4.975387
4.975388
4.975344
4.975343
4.975342
4.975343
4.975342
4.975342
4.975342
4.975342
4.975342
4.975342
4.975342
4.975342
4.975342
2.972284
4.984861
4.975352
4.976939
4.976898
4.975356
4.975343
4.975339
4.975347
4.975342
4.975342
4.975342
4.975342
4.975342
4.975342
4.975342
4.975342
4.975342
2.900138
4.984693
4.975365
4.97967
4.977399
4.975395
4.975344
4.975446
4.975435
4.975346
4.975342
4.975342
4.975342
4.975343
4.975342
4.975342
4.975342
4.975342
2.829224
4.986084
4.975358
4.976655
4.974886
4.975347
4.975345
4.975356
4.975352
4.975343
4.975342
4.975342
4.975342
4.975343
4.975342
4.975342
4.975342
4.975343
2.751795
4.987699
4.97548
4.979715
4.981978
4.975549
4.975348
4.975346
4.975343
4.975343
4.975342
4.975342
4.975343
4.975343
4.975342
4.975342
4.975343
4.975343
2.540955
4.988617
4.976269
4.99399
4.983019
4.987189
4.975361
4.975351
4.9754
4.975361
4.975342
4.975342
4.975344
4.975343
4.975342
4.975342
4.975342
4.975343
2.464959
4.989748
4.97806
4.97582
4.981827
4.977095
4.975378
4.975694
4.975753
4.97538
4.975343
4.975342
4.975343
4.975343
4.975342
4.975343
4.975346
4.975342
2.359918
5.068283
4.980549
4.975698
4.975826
4.97555
4.975459
4.975374
4.975436
4.975331
4.975319
4.975332
4.975363
4.975343
4.975342
4.975344
4.975345
4.975342
1.426202
5.025749
5.007745
4.987954
4.978437
4.977134
4.975885
4.974682
4.97448
4.975074
4.974937
4.975017
4.975356
4.975315
4.97534
4.975348
4.975344
4.975342
0.6587322
5.099573
5.011379
4.992975
4.981713
4.978911
4.975996
4.973445
4.972638
4.973777
4.97295
4.972655
4.973666
4.974358
4.975067
4.975332
4.975343
4.975342
0.1359446
5.34421
5.070214
4.99402
4.982709
4.980606
4.976021
4.974997
4.970696
4.972128
4.970397
4.968363
4.970368
4.970717
4.97151
4.974118
4.975222
4.975331
0.1721756
4.94274
5.081594
4.986455
4.984246
4.982184
4.975924
4.974684
4.968896
4.970317
4.967611
4.965577
4.966617
4.966313
4.967581
4.969717
4.971986
4.974511
0.3006148
4.891972
5.04424
4.991754
4.984971
4.984549
4.975754
4.974199
4.967408
4.968395
4.96466
4.964744
4.962642
4.960779
4.963398
4.96449
4.966651
4.969868
0.4919949
5.030216
5.062088
4.98734
4.985791
4.985423
4.975712
4.97367
4.966303
4.966402
4.961581
4.961426
4.958477
4.958431
4.95851
4.958962
4.960795
4.965292
0.5146769
5.081182
5.057553
4.986281
4.990858
4.982471
4.975693
4.973118
4.965563
4.964378
4.958524
4.958449
4.9544
4.954971
4.9535
4.953317
4.9568
4.958255
0.4813034
5.007794
5.150858
4.993503
4.986348
4.9828
4.976006
4.972525
4.965456
4.962604
4.960025
4.955093
4.951203
4.950754
4.948413
4.950079
4.949907
4.953774
0.4800396
4.822629
5.125857
5.055254
5.003732
4.984118
4.975963
4.971954
4.965551
4.960522
4.959067
4.952496
4.951333
4.946624
4.945494
4.944083
4.946894
4.947277
0.490919
4.552617
5.306057
5.063317
4.991237
4.985684
4.975794
4.970629
4.965794
4.958514
4.957643
4.951142
4.948114
4.944897
4.941577
4.941838
4.940387
4.943486
0.5244385
3.609988
5.176859
5.060891
5.009131
4.991789
4.975897
4.970511
4.966904
4.960885
4.954547
4.953959
4.947245
4.942933
4.938885
4.937034
4.936486
4.937707
0.5082845
2.403809
5.152032
5.131625
5.105134
4.985257
4.975518
4.97247
4.961327
4.964042
4.959018
4.951617
4.947857
4.942788
4.936502
4.936023
4.933204
4.93378
0.5068566
1.654882
4.801827
5.201023
5.057868
5.037668
4.969328
4.954475
4.948573
4.942623
4.936939
4.933898
4.932761
4.930214
0.4838665
0.1674384
4.993056
4.965044
4.952767
4.943435
4.937
4.931017
4.92999
4.929722
0.4826057
5.031064
4.955922
4.942494
4.93688
4.932567
4.92776
4.9261
4.954704
4.940228
4.937119
4.931181
4.926401
4.924292
4.96023
4.939016
4.931817
4.926744
4.923644
5.022677
4.944241
4.930975
4.925794
4.922546
4.970474
4.940348
4.931537
4.925583
4.92241
4.945774
4.93882
4.930938
4.92534
4.922135
4.917127
4.939637
4.93087
4.925137
4.922012
5.001891
4.939127
4.92935
4.925757
4.922608
5.021734
4.954318
4.937888
4.930282
4.925254
4.924775
0.4827285
4.973937
4.945122
4.938612
4.9303
4.92586
4.924059
0.4863825
0.7678913
4.999098
4.95395
4.941456
4.934873
4.930561
4.927759
4.926078
0.4929667
1.479168
4.251657
5.01677
5.013311
4.958854
4.953328
4.948689
4.936531
4.931275
4.92811
4.928662
0.508769
1.9769
5.091119
5.132733
5.029513
4.985444
4.977122
4.980709
5.052476
4.985188
4.963965
4.949943
4.94552
4.941959
4.936721
4.932091
4.931201
4.930745
0.5194568
3.059119
5.316324
5.053076
5.012184
4.983725
4.973783
4.969593
4.96856
4.963757
4.952963
4.950385
4.947125
4.93925
4.936094
4.935019
4.932768
4.934896
0.5209394
4.182803
5.138626
5.032419
5.000181
4.991328
4.97344
4.967876
4.964362
4.961136
4.953649
4.950725
4.945144
4.94281
4.938442
4.936293
4.937547
4.937501
0.484113
4.716061
5.30599
5.047916
4.989188
4.98276
4.973491
4.969233
4.963126
4.958192
4.955128
4.948607
4.946909
4.943351
4.942082
4.941293
4.940094
4.943697
0.4734986
4.906697
5.068386
5.089813
5.000818
4.98055
4.973118
4.969648
4.962898
4.95683
4.956817
4.951314
4.949706
4.946337
4.945567
4.943743
4.946437
4.947522
0.4796846
5.012106
5.079245
4.997485
4.985697
4.98027
4.973073
4.970214
4.962728
4.960723
4.957428
4.953733
4.949842
4.94986
4.946114
4.949829
4.950573
4.954265
0.491877
5.131644
5.055805
4.984801
4.989791
4.980104
4.97312
4.970838
4.963323
4.962673
4.959369
4.957046
4.953975
4.954884
4.953477
4.955285
4.956807
4.960397
0.4410113
5.153582
5.080547
4.985906
4.985338
4.990314
4.973327
4.971557
4.964417
4.964662
4.961539
4.960515
4.957814
4.95607
4.958505
4.957739
4.962707
4.965249
0.218554
5.070369
5.182641
4.994456
4.982692
4.985285
4.973726
4.972325
4.965982
4.966997
4.961806
4.964332
4.962343
4.961823
4.963941
4.965232
4.968611
4.971622
0.1439573
4.952911
5.126693
4.983468
4.982082
4.980446
4.974229
4.973159
4.967929
4.969329
4.964466
4.965899
4.966704
4.966734
4.967821
4.970748
4.973399
4.975
0.327777
5.282152
5.035372
4.982008
4.980664
4.979076
4.97478
4.972737
4.970201
4.971563
4.970029
4.970093
4.970829
4.97154
4.972991
4.97484
4.975139
4.975299
0.6474804
5.374367
5.015715
4.980763
4.979459
4.977667
4.975227
4.973261
4.972674
4.97366
4.97313
4.97395
4.97447
4.97497
4.975123
4.975287
4.975328
4.975341
1.967988
5.119029
5.009146
4.98125
4.977066
4.976427
4.975656
4.975056
4.975014
4.975281
4.975226
4.975284
4.975259
4.975288
4.975323
4.975343
4.975343
4.975342
2.237048
4.990158
4.978897
4.976718
4.976241
4.97548
4.975454
4.975326
4.975242
4.975327
4.975316
4.975331
4.975345
4.97534
4.975342
4.975344
4.975349
4.975342
2.369376
5.017378
4.975814
4.975602
4.98004
4.973521
4.975415
4.975631
4.975657
4.975377
4.975341
4.975342
4.975343
4.975342
4.975342
4.975343
4.975352
4.975342
2.531639
5.13762
4.977827
5.006924
4.988335
4.985882
4.975363
4.975365
4.975383
4.975381
4.975342
4.975342
4.975343
4.975342
4.975342
4.975342
4.975343
4.975342
2.750333
5.086471
4.976831
4.990489
4.98684
4.975815
4.97535
4.97535
4.975344
4.975343
4.975342
4.975342
4.975342
4.975343
4.975342
4.975342
4.975343
4.975343
2.836701
4.995311
4.975571
4.977122
4.976396
4.975352
4.975345
4.975334
4.975319
4.975342
4.975342
4.975342
4.975343
4.975343
4.975342
4.975342
4.975342
4.975343
2.917147
4.996727
4.975357
4.978817
4.976547
4.975353
4.975344
4.975544
4.975504
4.975343
4.975342
4.975342
4.975342
4.975342
4.975342
4.975342
4.975342
4.975342
2.996238
4.996303
4.975361
4.978252
4.979325
4.975351
4.975343
4.975359
4.975348
4.975342
4.975342
4.975342
4.975342
4.975342
4.975342
4.975342
4.975342
4.975342
3.074598
4.994768
4.975348
4.975432
4.975476
4.975343
4.975343
4.975343
4.975343
4.975342
4.975342
4.975342
4.975342
4.975342
4.975342
4.975342
4.975342
4.975342
3.148951
4.993607
4.975346
4.975344
4.975347
4.975343
4.975343
4.975342
4.975343
4.975342
4.975342
4.975342
4.975342
4.975342
4.975342
4.975342
4.975342
4.975342
3.225787
4.992513
4.975346
4.975343
4.975344
4.975343
4.975342
4.975342
4.975342
4.975342
4.975342
4.975342
4.975342
4.975342
4.975342
4.975342
4.975342
4.975342
3.301124
4.991548
4.975346
4.975343
4.975343
4.975342
4.975342
4.975342
4.975342
4.975342
4.975342
4.975342
4.975342
4.975342
4.975343
4.975342
4.975342
4.975342
3.373937
4.990551
4.975345
4.975342
4.975343
4.975342
4.975342
4.975342
4.975342
4.975342
4.975342
4.975342
4.975342
4.975342
4.975343
4.975342
4.975342
4.975342
3.445891
4.989919
4.975345
4.975342
4.975343
4.975342
4.975342
4.975342
4.975342
4.975342
4.975342
4.975342
4.975342
4.975342
4.975342
4.975342
4.975342
4.975342
3.521664
4.989095
4.975345
4.975342
4.975343
4.975342
4.975342
4.975342
4.975343
4.975342
4.975342
4.975342
4.975342
4.975342
4.975342
4.975342
4.975342
4.975342
3.594343
4.988845
4.975346
4.975342
4.975343
4.975342
4.975342
4.975343
4.975342
4.975342
4.975342
4.975342
4.975342
4.975342
4.975342
4.975342
4.975342
4.975342
3.670686
4.988525
4.975346
4.975342
4.975343
4.975342
4.975343
4.975343
4.975342
4.975342
4.975342
4.975342
4.975342
4.975342
4.975342
4.975342
4.975342
4.975342
3.746723
4.988526
4.975346
4.975342
4.975343
4.975344
4.975344
4.975342
4.975342
4.975342
4.975342
4.975342
4.975342
4.975342
4.975342
4.975342
4.975342
4.975342
3.829558
4.987946
4.975346
4.975343
4.975346
4.975347
4.975343
4.975342
4.975342
4.975342