/*--------------------------------*- C++ -*----------------------------------*\
| =========                 |                                                 |
| \\      /  F ield         | OpenFOAM: The Open Source CFD Toolbox           |
|  \\    /   O peration     | Version:  2206                                  |
|   \\  /    A nd           | Website:  www.openfoam.com                      |
|    \\/     M anipulation  |                                                 |
\*---------------------------------------------------------------------------*/
FoamFile
{
    version     2.0;
    format      ascii;
    arch        "LSB;label=32;scalar=64";
    class       volScalarField;
    location    "1.4";
    object      p_rbgh;
}
// * * * * * * * * * * * * * * * * * * * * * * * * * * * * * * * * * * * * * //

dimensions      [1 -1 -2 0 0 0 0];

internalField   nonuniform List<scalar> 
13078
(
9.444948
7.231225
4.643167
2.97269
1.89622
1.150658
0.626088
8.722439
6.421076
4.333246
2.860257
1.835563
1.106675
0.5890145
6.236334
5.089092
3.788805
2.632656
1.730735
1.051045
0.5535879
4.751713
4.102019
3.231133
2.361645
1.596989
0.9823856
0.5153542
3.809216
3.377568
2.750079
2.074194
1.445688
0.9014422
0.4709052
3.111941
2.805329
2.335116
1.798608
1.275025
0.8080092
0.4183089
2.561868
2.333117
1.9717
1.540514
1.101023
0.6977458
0.3564185
2.113398
1.934875
1.649508
1.298633
0.9288779
0.5814378
0.2822338
1.740305
1.595163
1.363806
1.074096
0.7623291
0.4640661
0.2038531
1.425742
1.303515
1.111505
0.8689642
0.604765
0.3494064
0.1255292
1.15815
1.052164
0.8894171
0.683704
0.4586802
0.2407207
0.05054514
0.9292912
0.8351762
0.6946931
0.5181753
0.3257055
0.1404677
-0.01846746
0.7331312
0.6479585
0.5248043
0.3718085
0.2066778
0.05021172
-0.07981844
0.5651908
0.4869335
0.3775539
0.2438223
0.1018434
-0.02926823
-0.1327643
0.4221186
0.3493341
0.2511612
0.1338951
0.01168948
-0.09759224
-0.1771663
0.3014289
0.2330133
0.1440166
0.04038938
-0.06487395
-0.1549786
-0.2132403
0.20138
0.1364306
0.05491496
-0.03758159
-0.1284721
-0.2015072
-0.2408634
0.1209344
0.05868327
-0.01674752
-0.09997228
-0.1786906
-0.2369986
-0.2596927
0.05972195
-0.0005599859
-0.07120607
-0.1468893
-0.2155012
-0.2611606
-0.2692534
0.01810011
-0.04097813
-0.1081529
-0.1779653
-0.2379119
-0.2733264
-0.2689314
-0.002723309
-0.06149774
-0.1267096
-0.192629
-0.2459927
-0.2735343
-0.2585252
-0.0004602033
-0.06008302
-0.1252206
-0.1895965
-0.239422
-0.261287
-0.2378142
0.02857112
-0.03339748
-0.1008606
-0.1666068
-0.2161288
-0.2355249
-0.2066134
0.08985222
0.02354915
-0.04938187
-0.12042
-0.1737523
-0.1943792
-0.1646881
0.1911982
0.117887
0.03527624
-0.04634467
-0.1092241
-0.136307
-0.1115857
0.3434335
0.2595754
0.1616652
0.0625434
-0.01772014
-0.05963016
-0.0461025
0.5612301
0.46215
0.3417259
0.2160499
0.1081347
0.04086735
0.03313072
0.8641764
0.744136
0.5918059
0.4276347
0.2788815
0.1723233
0.1303339
1.27748
1.129353
0.9336731
0.7163568
0.5094968
0.3450545
0.2517672
1.833632
1.650386
1.396008
1.107621
0.8214968
0.5754279
0.4047048
2.573799
2.343835
2.015352
1.635219
1.244788
0.8879636
0.6079146
3.540039
3.257221
2.84411
2.344175
1.820021
1.317798
0.8880949
4.78781
4.450727
3.938693
3.303252
2.602483
1.915095
1.286177
6.373069
5.968261
5.36469
4.567867
3.663174
2.749417
1.865234
8.352778
7.87567
7.163565
6.221817
5.120464
3.919394
2.717701
10.7772
10.23181
9.421904
8.377913
7.079353
5.594721
3.980288
13.67996
13.07886
12.19428
11.05191
9.653159
7.879126
5.837056
17.06742
16.43383
15.51759
14.33023
12.85379
10.94162
8.612149
20.90737
20.27687
19.38807
18.24409
16.80808
14.98679
12.44254
25.12751
24.55163
23.74872
22.74991
21.49278
19.86104
17.50214
29.59145
29.12013
28.50959
27.73664
26.81184
25.59422
23.87769
34.07315
33.77207
33.44336
33.06667
32.56593
31.89949
31.15482
38.34323
38.21058
38.25969
38.40147
38.53915
38.80093
40.90093
42.13021
42.18842
42.58606
43.30201
44.52987
47.83628
55.84071
45.15549
45.41824
46.11543
47.37919
51.30843
60.97173
75.75607
47.12917
47.58725
48.56778
51.33239
60.30738
76.57215
92.89553
47.79275
48.28737
49.92765
56.37386
70.88383
88.38249
101.1231
47.06264
47.48484
50.87062
61.84259
78.81668
92.95176
103.4913
44.97667
45.75019
51.83662
65.43579
79.97959
90.71711
102.9165
41.86371
43.87589
52.61966
65.94483
76.80219
86.43295
101.4009
37.94919
41.86863
52.55589
63.83063
71.92552
82.26244
100.4355
33.79635
39.586
50.86148
59.84121
66.98209
79.3327
100.7722
30.53421
37.66089
48.27021
56.24013
63.82424
78.79255
104.55
29.15725
37.20034
47.35507
54.60766
63.12574
80.79001
110.0102
29.7637
38.3982
48.14418
54.98501
64.40852
84.19454
115.8656
32.38607
41.47506
51.10227
57.85727
67.85039
88.68936
121.3296
37.52523
46.91842
56.92008
64.0363
74.19484
94.87356
126.9289
44.72923
54.08097
64.83953
72.6711
82.60479
102.0434
132.1737
53.20629
62.23246
73.97206
82.932
92.53059
110.0787
137.5403
62.76986
71.08339
83.87872
94.50897
104.0612
119.5327
144.1671
72.86818
79.92544
93.93463
106.5872
116.7153
130.3449
151.1759
82.2317
87.33539
100.4065
115.6682
127.9018
140.7501
159.0343
89.66449
92.73282
103.4269
120.4791
136.3167
149.6373
165.5289
94.89382
96.60517
104.2323
120.5799
140.0219
155.4972
169.5387
97.83856
99.06727
103.7653
116.3026
136.5837
155.6687
169.1991
98.42892
99.53686
102.3152
109.881
125.6328
146.5677
163.2668
96.8176
97.68673
99.5582
103.4519
113.1129
130.2449
149.1468
93.28277
93.79576
95.10931
97.33683
102.184
111.8399
126.8735
88.24173
88.42454
89.21998
90.59644
92.63085
96.5204
104.1645
82.12432
82.01926
82.28573
82.8118
83.47984
84.37662
86.55362
75.31064
74.96187
74.69673
74.47916
74.22112
73.80221
73.08579
68.15888
67.5759
66.9055
66.11277
65.14835
63.83136
61.87969
60.96806
60.23186
59.27557
58.08512
56.57925
54.60729
51.73897
54.02738
53.20318
52.09049
50.62609
48.77434
46.46331
43.16671
47.52403
46.67106
45.4546
43.86977
41.87244
39.26641
36.04366
41.5625
40.71453
39.48294
37.87672
35.83303
33.25321
30.18293
36.20258
35.39802
34.21158
32.67185
30.66199
28.27007
25.59204
31.45275
30.71772
29.61891
28.12574
26.30178
24.17704
21.88248
27.29955
26.63963
25.64996
24.28254
22.62955
20.82445
18.85446
23.69732
23.11257
22.20195
21.01378
19.58987
18.03393
16.35245
20.58852
20.05875
19.25791
18.22009
17.02054
15.68794
14.25847
17.91556
17.44992
16.74718
15.86647
14.83847
13.69875
12.48094
15.61373
15.21371
14.61157
13.85494
12.9726
11.99812
10.96086
13.6412
13.29104
12.77732
12.12621
11.36747
10.53189
9.644084
11.94606
11.64164
11.19754
10.63437
9.97873
9.256212
8.466608
10.48511
10.21874
9.832319
9.342196
8.772126
8.144352
7.449592
9.223262
8.988524
8.649407
8.219554
7.72018
7.171402
6.566347
8.131358
7.922597
7.622276
7.241941
6.800808
6.316542
5.787081
7.185268
6.997783
6.729187
6.389386
5.995335
5.55331
5.092304
6.36513
6.195069
5.952409
5.645866
5.291081
4.890103
4.475957
5.654615
5.498843
5.27737
4.99806
4.675834
4.313865
3.942773
5.040308
4.896239
4.692007
4.434875
4.138883
3.809468
3.474603
4.511166
4.376642
4.186284
3.94661
3.666423
3.366066
3.064161
4.058115
3.931318
3.751998
3.526332
3.261236
2.979314
2.7059
3.673695
3.553038
3.382223
3.167366
2.91613
2.650407
2.395273
3.351787
3.235818
3.071138
2.863921
2.622679
2.36882
2.126931
3.087456
2.974793
2.813946
2.611125
2.376044
2.129728
1.89638
2.87683
2.766074
2.606523
2.402662
2.170566
1.928858
1.699455
2.717104
2.606816
2.446148
2.239198
2.003855
1.762778
1.53253
2.606472
2.495045
2.330502
2.118028
1.876234
1.628766
1.392623
2.544173
2.429672
2.257865
2.03553
1.782557
1.523818
1.277252
2.530644
2.410626
2.227323
1.989873
1.720299
1.445353
1.184218
2.567754
2.438922
2.238591
1.979486
1.686973
1.390542
1.110992
2.659171
2.516835
2.291943
2.002769
1.679703
1.35597
1.05427
2.810979
2.648176
2.388143
2.057841
1.695003
1.337466
1.009886
3.03277
2.838719
2.527549
2.141297
1.728524
1.330132
0.9729809
3.339706
3.0974
2.71289
2.25083
1.77536
1.328197
0.9343711
3.756448
3.438192
2.948855
2.386051
1.829609
1.320073
0.8933161
4.327218
3.885677
3.241633
2.540814
1.876098
1.30598
0.8472232
5.149214
4.491101
3.601276
2.696513
1.915263
1.28299
0.7949518
6.519987
5.355865
4.012535
2.849181
1.939504
1.248363
0.7372495
8.886223
6.511614
4.428144
2.959569
1.933133
1.199862
0.6765897
0.2698024
0.05075834
-0.06005421
-0.07722523
-0.07540567
-0.04532768
0.0180494
0.2363006
0.01951404
-0.08987111
-0.1081486
-0.1072103
-0.0884073
-0.09103846
0.2090691
-0.004820688
-0.1133052
-0.1474832
-0.1381778
-0.1273896
-0.1347577
0.1840649
-0.02539065
-0.1341451
-0.1574611
-0.1634371
-0.1543736
-0.1566327
0.1576457
-0.04424746
-0.1509032
-0.1751787
-0.1827993
-0.1745816
-0.174024
0.127028
-0.06389188
-0.1660174
-0.1902547
-0.198944
-0.1912653
-0.1894454
0.09091685
-0.08586011
-0.1810433
-0.2039136
-0.2124184
-0.2055315
-0.2032468
0.04904356
-0.1102729
-0.1958241
-0.2160288
-0.2233341
-0.2174231
-0.2162911
0.0004510904
-0.1361047
-0.2088748
-0.2251729
-0.2300167
-0.2256041
-0.2281935
-0.04855221
-0.162132
-0.2176446
-0.228487
-0.2288512
-0.2266477
-0.2373823
-0.0943405
-0.1832986
-0.2186113
-0.2216997
-0.2136186
-0.2132654
-0.2395353
-0.1343976
-0.1967785
-0.2075355
-0.1989002
-0.1751529
-0.1704613
-0.2211134
-0.1673109
-0.2015204
-0.1835645
-0.15648
-0.1015848
-0.07164762
-0.1211303
-0.192985
-0.1987753
-0.1498557
-0.09768699
0.005896769
0.1008172
0.06329868
-0.2121369
-0.1910856
-0.1128066
-0.03384001
0.1219568
0.3158892
0.6758374
-0.2253902
-0.1804469
-0.07723649
0.02343173
0.2109419
0.4246471
0.6837012
-0.2328251
-0.1670759
-0.04328643
0.07278208
0.2768894
0.4884743
0.6902579
-0.2338426
-0.1498801
-0.008540248
0.1188436
0.3292819
0.5507634
0.7481722
-0.2276112
-0.1274215
0.02960906
0.1665476
0.389158
0.6192417
0.8230101
-0.2133448
-0.09850674
0.07301066
0.2186316
0.4537826
0.6941012
0.9060653
-0.1906299
-0.06245414
0.1226434
0.2764601
0.5241323
0.7749757
0.994586
-0.1593205
-0.01906607
0.1787659
0.3405722
0.6006817
0.8619369
1.088719
-0.1194894
0.03143833
0.2409319
0.41117
0.6832168
0.9550434
1.188885
-0.0714559
0.08841286
0.3098605
0.5745436
0.7640074
1.053694
1.295131
-0.01634129
0.1494551
0.3795029
0.5686004
0.8528701
1.157802
1.407069
0.04502571
0.2133281
0.4516186
0.6469573
0.9462273
1.265809
1.524444
0.111305
0.2770084
0.5198142
0.7244092
1.037602
1.375309
1.647868
0.1808084
0.3377273
0.5794029
0.7932614
1.121313
1.472177
1.775977
0.2529682
0.3388424
0.5469608
0.8434341
1.189351
1.565448
1.903544
0.3363176
0.3868652
0.5732751
0.8674018
1.231657
1.645252
2.028575
0.4404409
0.4261053
0.5694353
0.8502605
1.233427
1.687373
2.146903
0.5814903
0.4645514
0.5269998
0.7739446
1.172133
1.672869
2.25111
0.779168
0.5250942
0.4355977
0.6112343
1.012652
1.596039
2.338201
1.083135
0.6132447
0.2822537
0.3209848
0.6942458
1.377256
2.306592
1.572049
0.7796091
0.08858895
-0.1570895
0.1137339
0.9302925
2.20391
2.375863
1.113969
-0.09218473
-0.9012985
-0.9189796
0.01887643
2.246226
3.695017
1.784417
-0.19252
-1.939129
-2.697036
-1.942589
0.729507
5.825629
3.074787
0.0634338
-3.093579
-5.510772
-5.725702
-2.154112
9.146462
5.418916
1.203687
-3.751977
-9.323619
-12.33745
-7.726089
14.22688
9.363437
4.051556
-2.780627
-11.66076
-19.367
-15.18731
21.06033
15.49115
10.72158
4.029655
-7.521075
-21.2335
-19.37364
30.92975
26.77901
25.31511
17.42778
0.8559537
-17.37238
-21.34753
46.51768
44.74323
44.05983
32.35793
12.22424
-9.830961
-21.13965
67.50839
65.12086
61.97089
48.93884
28.01165
2.810998
-14.18675
87.00676
84.4208
81.14108
68.48797
47.14698
17.81088
-3.57093
101.5995
100.2308
99.62656
89.52551
67.46966
35.4036
5.654078
110.5478
112.8129
116.1937
109.9954
90.41451
52.7012
12.21381
116.5617
123.3206
131.7254
130.8793
113.3657
72.66333
22.40581
120.3975
131.9841
145.5514
149.4006
135.6037
96.3218
41.76216
123.7445
138.5984
155.6838
162.8816
153.1702
117.6635
61.43761
125.5787
142.674
162.0932
172.0336
165.7298
133.5944
74.36404
129.6856
147.8704
169.6225
183.4439
181.0253
150.5787
91.6192
137.132
157.0503
182.6921
198.4302
197.434
167.9757
112.6395
146.5836
170.0126
198.2768
213.5121
212.2354
185.4691
126.7905
154.907
180.4523
209.0926
227.0185
229.7247
204.7335
159.3081
160.6113
186.3023
214.394
235.0401
240.7011
218.8581
165.1546
190.099
216.7183
235.6098
239.1676
216.655
168.3604
192.5142
216.6678
229.7317
226.2152
197.7637
170.228
192.5959
214.6557
223.5269
216.865
184.8823
130.1365
172.9967
191.5757
211.3411
220.6409
213.3448
178.3279
113.9295
177.3449
193.3419
209.9862
217.6075
210.4609
176.3796
111.2721
181.6813
195.9451
209.5298
213.7635
202.9795
166.9633
103.1187
185.4467
197.5904
206.6811
206.5605
193.3222
154.8298
90.76294
184.9155
195.1273
201.1232
197.0579
179.0382
137.57
70.4815
181.5455
190.0221
191.8796
183.4961
160.2622
113.8493
45.24161
173.662
180.2971
179.645
166.4978
140.3203
92.76179
33.3966
160.5166
167.0982
163.714
148.4449
118.3992
73.79286
20.18631
140.7745
148.7422
144.4348
129.2446
99.65218
58.24417
15.56963
115.533
126.6707
123.4143
107.852
82.11296
48.16011
17.17986
90.69939
100.6779
100.5648
88.08339
64.63404
37.28958
11.52043
72.17477
76.57825
76.47647
67.49547
48.01155
24.1331
3.615032
58.60654
58.6406
54.2051
46.59217
32.99893
12.391
-2.035398
47.79718
46.06301
39.80944
31.67113
20.61219
4.504101
-4.002836
38.88689
37.04889
31.08029
23.58337
13.75497
3.657099
-0.9358643
32.0995
30.21049
25.06484
19.02354
11.63321
5.58752
2.889123
26.81082
25.06093
20.8028
15.77366
10.79919
6.826505
4.364377
22.67724
21.13916
17.66744
13.70564
10.10904
7.195761
5.099017
19.39954
18.09056
15.2072
12.05889
9.38876
7.065092
5.062216
16.75668
15.66062
13.20214
10.78369
8.633945
6.670366
4.808653
14.58732
13.66717
11.54006
9.677445
7.896682
6.219011
4.571951
12.768
11.93731
10.24149
8.697193
7.198608
5.753761
4.233901
11.18128
10.51002
9.115929
7.819547
6.545307
5.29237
3.95237
9.828805
9.240725
8.127204
7.027868
5.938308
4.785188
3.675649
8.685184
8.191801
7.246481
6.309041
5.376286
4.379803
3.412256
7.654918
6.840267
6.07234
5.651707
4.856911
3.999557
3.161123
6.742275
6.067415
5.410293
5.059188
4.377157
3.616547
2.92181
5.953592
5.374838
4.812578
4.520889
3.939012
3.279549
2.695685
5.254227
4.754871
4.27386
4.032944
3.539216
2.980866
2.485363
4.632565
4.200791
3.78956
3.592003
3.175297
2.706666
2.290413
4.080839
3.706734
3.355469
3.194804
2.828839
2.454509
2.107943
3.593336
3.267461
2.967578
2.838232
2.530446
2.224223
1.93811
3.16299
2.877945
2.621948
2.519002
2.26491
2.014109
1.779696
2.784249
2.533564
2.314819
2.233896
2.025722
1.822245
1.631937
2.452121
2.22998
2.042595
1.979928
1.810902
1.64745
1.493739
2.161941
1.96298
1.801681
1.754215
1.618793
1.489423
1.364918
1.909072
1.728231
1.588103
1.553231
1.445877
1.349614
1.250695
1.689031
1.52118
1.397246
1.3735
1.291281
1.230467
1.15757
1.497495
1.337065
1.223301
1.208414
1.151988
1.132545
1.113055
1.330645
1.171473
1.060148
1.048576
1.005778
1.020135
1.066816
1.185651
1.021719
0.9046004
0.8865593
0.831249
0.8274806
0.9461412
1.060849
0.8876857
0.7594028
0.7257433
0.6359593
0.5459763
0.3554771
0.9551934
0.7707396
0.6308857
0.5802914
0.4670911
0.3363262
0.1210937
0.8671645
0.6712517
0.5231446
0.461264
0.3431665
0.2162329
0.0529863
0.7940615
0.5877197
0.4338032
0.3669646
0.2545064
0.1449168
0.02144133
0.7322052
0.5147482
0.3586746
0.2910502
0.1889784
0.09732178
0.0003521543
0.6743328
0.4491523
0.2929735
0.2276759
0.1374028
0.06159398
-0.01556355
0.6184911
0.3871854
0.2329862
0.1723469
0.09543294
0.03199211
-0.03221426
0.561636
0.3263506
0.1762743
0.1218007
0.0570186
0.006583595
-0.04663724
0.5021438
0.2655656
0.1218773
0.07493803
0.02306479
-0.01479173
-0.0589815
0.4401437
0.2052429
0.07007962
0.0316252
-0.006127232
-0.03060688
-0.06729761
0.3775351
0.1471814
0.02159272
-0.007797658
-0.02999071
-0.03717058
-0.06465305
0.3174657
0.0936
-0.0226929
-0.04377658
-0.05059603
-0.03260856
0.004287115
-0.1742949
-0.1453535
-0.1354655
-0.131538
-0.1296157
-0.1281241
-0.1268721
-0.1256312
-0.1243723
-0.1229709
-0.1213782
-0.1195958
-0.1176284
-0.1154818
-0.113167
-0.1106833
-0.1080448
-0.1052604
-0.1588648
-0.1520427
-0.1467284
-0.1440245
-0.1418925
-0.1402205
-0.1387993
-0.1374374
-0.1360326
-0.13444
-0.1326453
-0.1306484
-0.128453
-0.1260651
-0.1235013
-0.1207543
-0.1178354
-0.1147602
-0.1599398
-0.1581513
-0.1567743
-0.1555731
-0.1536941
-0.1522503
-0.150839
-0.1494167
-0.1478646
-0.1460874
-0.1440896
-0.1418744
-0.1394454
-0.1368091
-0.1339869
-0.1309663
-0.1277575
-0.1243814
-0.1685053
-0.1674194
-0.1664978
-0.1661932
-0.1654007
-0.1643427
-0.1630566
-0.1615811
-0.1598828
-0.1579244
-0.1557254
-0.1532878
-0.1506191
-0.1477265
-0.1446355
-0.14133
-0.1378205
-0.1341326
-0.1791433
-0.1782687
-0.1764602
-0.1771619
-0.1771456
-0.1764814
-0.1754048
-0.1739255
-0.1721021
-0.1699667
-0.1675695
-0.1649044
-0.1619887
-0.158831
-0.1554466
-0.1518566
-0.1480344
-0.1440223
-0.1907352
-0.1896619
-0.1878769
-0.1884243
-0.1890881
-0.1887885
-0.1879098
-0.1864704
-0.1845457
-0.1822374
-0.1796398
-0.1767417
-0.1735705
-0.1701375
-0.166455
-0.1625567
-0.1584093
-0.1540593
-0.2022167
-0.2024194
-0.2008896
-0.2005558
-0.2013954
-0.2013865
-0.2006588
-0.1992567
-0.1972445
-0.1947619
-0.1919567
-0.1888201
-0.1853826
-0.1816619
-0.1776731
-0.1734441
-0.1689556
-0.1642523
-0.2140212
-0.2150558
-0.2143226
-0.2134813
-0.2142406
-0.2143886
-0.2137343
-0.2123368
-0.2102348
-0.2075725
-0.2045457
-0.2011613
-0.1974438
-0.1934208
-0.1891094
-0.1845307
-0.179684
-0.1746103
-0.2264953
-0.2280346
-0.2278125
-0.2272776
-0.2278067
-0.2278916
-0.2272079
-0.2257616
-0.2235511
-0.220697
-0.2174339
-0.213787
-0.2097746
-0.2054324
-0.2007803
-0.1958293
-0.190605
-0.1851417
-0.2401841
-0.2421325
-0.2421788
-0.2418174
-0.2421126
-0.2419583
-0.2411389
-0.2395782
-0.2372258
-0.2341652
-0.2306502
-0.2267224
-0.2223966
-0.2177152
-0.2127016
-0.207353
-0.2017291
-0.1958549
-0.2569472
-0.2584373
-0.2579564
-0.2574539
-0.2571982
-0.2566284
-0.2555778
-0.2538313
-0.2512912
-0.2480029
-0.2442177
-0.2399938
-0.2353322
-0.2302887
-0.2248897
-0.2191145
-0.2130669
-0.2067577
-0.2818493
-0.2805088
-0.2774424
-0.2744738
-0.2730572
-0.2719355
-0.2705718
-0.2685685
-0.2657883
-0.2622443
-0.2581712
-0.2536277
-0.2486051
-0.2431724
-0.2373609
-0.2311267
-0.224628
-0.2178572
-0.3301853
-0.3174276
-0.3062069
-0.2957531
-0.2897335
-0.2879269
-0.286166
-0.2838393
-0.2807696
-0.2769382
-0.2725498
-0.267651
-0.262239
-0.2563867
-0.2501317
-0.243402
-0.2364216
-0.2291599
-0.3850754
-0.3695923
-0.3420243
-0.3228557
-0.3097686
-0.3046566
-0.3023941
-0.2996876
-0.2962856
-0.2921294
-0.2873861
-0.2820922
-0.276258
-0.2699512
-0.2632182
-0.2559522
-0.2484563
-0.2406708
-0.4717447
-0.4108748
-0.3729379
-0.349595
-0.3333106
-0.3227553
-0.3192802
-0.3161462
-0.312375
-0.3078528
-0.3027104
-0.2969816
-0.2906856
-0.283886
-0.2766363
-0.2687882
-0.2607392
-0.2523941
-0.4605027
-0.4302076
-0.393893
-0.3701205
-0.3553339
-0.3427551
-0.3367588
-0.3332478
-0.3290746
-0.324143
-0.3185553
-0.3123456
-0.305546
-0.2982105
-0.290401
-0.2819199
-0.2732762
-0.2643319
-0.4516719
-0.4347923
-0.4101978
-0.3888703
-0.3760684
-0.3626888
-0.355235
-0.3510441
-0.3464238
-0.3410364
-0.334955
-0.3282194
-0.3208629
-0.3129442
-0.3045267
-0.2953558
-0.2860716
-0.2764844
-0.4613407
-0.4461169
-0.4248664
-0.4080986
-0.3962493
-0.3821773
-0.3743181
-0.369565
-0.3644622
-0.3585722
-0.3519469
-0.3446288
-0.3366617
-0.3281058
-0.319027
-0.3091027
-0.2991274
-0.2888497
-0.4811129
-0.4624163
-0.4430234
-0.4276035
-0.4155609
-0.4012863
-0.3940147
-0.3888818
-0.3832361
-0.3767897
-0.3695623
-0.3616025
-0.3529665
-0.3437135
-0.3339139
-0.3231656
-0.3124436
-0.301423
-0.5025052
-0.4828251
-0.4633779
-0.4476608
-0.4348479
-0.4205397
-0.4145322
-0.4090064
-0.4027836
-0.3957293
-0.3878384
-0.3791757
-0.3697983
-0.3597838
-0.3491975
-0.3375459
-0.3260168
-0.3141961
-0.5244428
-0.5045484
-0.484751
-0.4684981
-0.4544933
-0.4412975
-0.4360477
-0.4300318
-0.4231644
-0.4154387
-0.4068159
-0.3973736
-0.3871854
-0.3763315
-0.3646923
-0.3522317
-0.3398409
-0.3271569
-0.5462768
-0.5270045
-0.5075696
-0.4901742
-0.4746389
-0.4647417
-0.4591545
-0.4520876
-0.4444472
-0.4359714
-0.4265372
-0.4162321
-0.4051504
-0.3933723
-0.3806152
-0.3672386
-0.3539044
-0.3402896
-0.5682953
-0.5496648
-0.5299193
-0.5135013
-0.4971781
-0.4899521
-0.4835755
-0.4756701
-0.4667498
-0.4573868
-0.447046
-0.435787
-0.4237119
-0.4109184
-0.3970517
-0.3825532
-0.3681921
-0.3535725
-0.591065
-0.5732067
-0.5538347
-0.5382068
-0.5224634
-0.5159434
-0.5092114
-0.5005125
-0.4905669
-0.4797903
-0.4683949
-0.4560696
-0.4428899
-0.4289775
-0.4138875
-0.3981579
-0.3826814
-0.3669757
-0.6147572
-0.5980674
-0.579575
-0.5649917
-0.5490952
-0.5430881
-0.5362778
-0.5266434
-0.5156634
-0.5036611
-0.4906676
-0.4771123
-0.4627043
-0.447554
-0.4311135
-0.4140325
-0.3973425
-0.3804624
-0.6393914
-0.6242882
-0.6069192
-0.5934723
-0.5787199
-0.5719895
-0.5649688
-0.5541996
-0.5420085
-0.5287535
-0.5143153
-0.4989961
-0.4831713
-0.4666238
-0.4482622
-0.4301482
-0.4121364
-0.3939861
-0.6645055
-0.6519805
-0.6362378
-0.623
-0.6107704
-0.6029022
-0.5951349
-0.5832838
-0.5696929
-0.555019
-0.5390883
-0.5220949
-0.5043664
-0.4861991
-0.4657199
-0.4464553
-0.4270135
-0.4074907
-0.6887363
-0.681173
-0.6703074
-0.6556986
-0.6447994
-0.6356525
-0.6267642
-0.6140284
-0.5988221
-0.5825305
-0.5649155
-0.5461903
-0.526572
-0.5063515
-0.4838156
-0.4629154
-0.4419148
-0.4209103
-0.7177907
-0.7147307
-0.7026669
-0.6913092
-0.6805173
-0.6703613
-0.6602905
-0.6464838
-0.6294581
-0.611339
-0.5918215
-0.5711441
-0.5495755
-0.5272612
-0.5022022
-0.4794617
-0.4567656
-0.4341611
-0.7494873
-0.749501
-0.7394101
-0.7294779
-0.7187395
-0.7073474
-0.6960196
-0.6807874
-0.6617761
-0.6415928
-0.6199105
-0.597029
-0.5732601
-0.5478303
-0.5210347
-0.4960629
-0.4714712
-0.4472984
-0.7847816
-0.7859783
-0.7804535
-0.7709716
-0.7599053
-0.7469459
-0.7341907
-0.7171325
-0.6957767
-0.6732851
-0.6491416
-0.623781
-0.5975407
-0.5691104
-0.5401153
-0.512845
-0.4861339
-0.4602458
-0.8259179
-0.8255821
-0.8252517
-0.8156924
-0.802636
-0.7895293
-0.7751167
-0.7558106
-0.7321833
-0.70653
-0.6795576
-0.6513793
-0.6223696
-0.5909604
-0.5591817
-0.5295294
-0.5006148
-0.4714012
-0.8683431
-0.8734893
-0.8741144
-0.8650878
-0.8506079
-0.8357154
-0.8191303
-0.7970138
-0.7704174
-0.7413665
-0.7111523
-0.6797625
-0.6475761
-0.6113535
-0.5780589
-0.5458116
-0.5144822
-0.4819918
-0.9076197
-0.9193517
-0.9221911
-0.9167778
-0.902372
-0.8858617
-0.8666073
-0.8408941
-0.810619
-0.7777734
-0.7438769
-0.7088601
-0.6731496
-0.6324217
-0.596555
-0.5614852
-0.5274461
-0.4907547
-0.9278516
-0.9685516
-0.9711429
-0.969223
-0.9605849
-0.9406614
-0.917957
-0.8877132
-0.8531736
-0.8157625
-0.7776405
-0.7385421
-0.6988366
-0.6537006
-0.6144397
-0.576306
-0.5370391
-0.4995753
-0.9559352
-1.027322
-1.030753
-1.028294
-1.020009
-1.001215
-0.9735558
-0.9378007
-0.8987415
-0.8552593
-0.8123176
-0.7686341
-0.7214549
-0.6742078
-0.6314099
-0.5898635
-0.5461094
-0.5069904
-0.9923262
-1.094364
-1.109573
-1.09853
-1.089665
-1.068421
-1.034025
-0.9922493
-0.9460272
-0.8962817
-0.8477982
-0.7988795
-0.7460624
-0.693907
-0.6471127
-0.6018533
-0.5525073
-0.5125061
-0.9162271
-1.167315
-1.193832
-1.181239
-1.168992
-1.142388
-1.099496
-1.049586
-0.9957834
-0.9387267
-0.883873
-0.8287655
-0.7656944
-0.7122296
-0.6611053
-0.6081882
-0.5583026
-0.5157656
-0.6960396
-1.258537
-1.288518
-1.276209
-1.257971
-1.223485
-1.170115
-1.110624
-1.048016
-0.9824408
-0.9203263
-0.8583226
-0.7874536
-0.72868
-0.6726596
-0.6109408
-0.5615592
-0.5163179
-0.3545791
-1.38529
-1.418505
-1.390357
-1.358105
-1.312081
-1.246113
-1.175538
-1.102662
-1.027164
-0.9567214
-0.8824795
-0.80726
-0.742743
-0.6783943
-0.6142026
-0.5616086
-0.5136744
2.076217
-1.533971
-1.546943
-1.514712
-1.467942
-1.408202
-1.327873
-1.244278
-1.159426
-1.072538
-0.9924379
-0.9069045
-0.8245472
-0.7535074
-0.6787121
-0.613618
-0.5578595
-0.5072925
-0.1158098
-1.734135
-1.709297
-1.653134
-1.586236
-1.511341
-1.415579
-1.316567
-1.21804
-1.117737
-1.026393
-0.9220466
-0.8383581
-0.755821
-0.6742747
-0.6087575
-0.5497373
-0.4964336
-1.966275
-1.929714
-1.883801
-1.809711
-1.714424
-1.619063
-1.509895
-1.393039
-1.277698
-1.161949
-1.058001
-0.9398339
-0.8474793
-0.7534191
-0.6679058
-0.5985734
-0.5362299
-0.4762494
-2.068701
-2.139504
-2.075077
-1.978221
-1.858464
-1.742146
-1.611538
-1.47255
-1.337675
-1.204003
-1.07432
-0.9517025
-0.8496083
-0.7379715
-0.6551979
-0.5817122
-0.5112526
-0.4520192
-2.095389
-2.366331
-2.289974
-2.164895
-2.019073
-1.877548
-1.719959
-1.554679
-1.393106
-1.241651
-1.088199
-0.956572
-0.8324027
-0.7214716
-0.634069
-0.5505748
-0.4811533
-0.4207757
-2.274093
-2.674743
-2.50969
-2.37974
-2.199783
-2.0267
-1.835759
-1.638625
-1.444484
-1.273049
-1.087995
-0.9507875
-0.801198
-0.6955029
-0.5972736
-0.5123447
-0.4403297
-0.3790369
-4.379378
-3.007185
-2.765203
-2.596985
-2.402834
-2.202471
-1.959272
-1.72326
-1.494253
-1.284927
-1.083782
-0.9199106
-0.7680284
-0.6514646
-0.5472513
-0.4590034
-0.3893757
-0.331699
0.3171851
-2.897271
-3.013198
-2.875699
-2.643776
-2.39039
-2.091403
-1.80156
-1.535558
-1.271757
-1.056464
-0.8661488
-0.7114956
-0.5845792
-0.4787694
-0.3969643
-0.3264665
-0.2726197
9.789216
-2.111377
-3.374302
-3.220348
-2.956004
-2.601291
-2.229695
-1.872689
-1.538485
-1.24815
-1.001301
-0.7885813
-0.6252026
-0.4964068
-0.39306
-0.317506
-0.2566177
-0.2055711
10.73378
-0.8773304
-3.795558
-3.651759
-1.504322
-1.179023
-0.9013502
-0.6803326
-0.5102859
-0.3852525
-0.2904377
-0.2239182
-0.1691249
-0.1308171
9.964294
-4.764485
-0.7405622
-0.5172906
-0.3640904
-0.2513636
-0.170422
-0.1135621
-0.07431191
-0.04447141
11.10217
-0.32157
-0.1755523
-0.08043909
-0.02935734
0.01130146
0.03173056
0.04071905
0.05753795
0.1059877
0.1281881
0.1376441
0.1361666
0.1365075
0.3066215
0.2921519
0.2721917
0.2499093
0.2282933
0.5160707
0.4533397
0.4008235
0.3557785
0.3149526
0.6986362
0.5973908
0.5143794
0.4476126
0.3924873
0.8422328
0.7175111
0.6141355
0.5317462
0.4644508
0.9397439
0.7986615
0.6847459
0.5913166
0.5171657
0.9706743
0.8342171
0.7230992
0.6305443
0.5518147
1.090531
0.9623942
0.8423577
0.7360807
0.648238
0.5719169
31.75762
1.040349
0.9226696
0.8201775
0.7283715
0.6479668
0.5787598
33.00638
0.482201
0.9974772
0.9331285
0.8582715
0.7791729
0.7041313
0.6341473
0.5716238
22.25571
3.654897
-1.068439
0.8140606
0.8773323
0.8693564
0.8344297
0.7861401
0.7273907
0.6682442
0.6099394
0.5563544
15.24891
0.450618
-0.7415242
-0.6120255
-0.364015
-0.08126136
0.1819396
0.4021695
0.577718
0.6772227
0.7381193
0.7533921
0.7408678
0.710853
0.6713678
0.6255476
0.5793142
0.533987
5.511034
0.183318
-0.4909646
-0.3986973
-0.2303702
-0.03001153
0.1702111
0.3452855
0.4740115
0.5744743
0.6291359
0.655152
0.6575766
0.6416384
0.6147408
0.5811737
0.5447246
0.507708
5.835732
-0.3649336
-0.3246566
-0.2529252
-0.1194936
0.01791222
0.1688104
0.2991847
0.4073017
0.4880145
0.5440297
0.5758206
0.5834869
0.5774443
0.5611625
0.5372302
0.5090888
0.479452
-0.160489
-0.4416905
-0.2543168
-0.1510376
-0.04506164
0.0613217
0.1734978
0.2751766
0.3624853
0.4275028
0.4801515
0.5064247
0.5232253
0.5205745
0.5112665
0.4950978
0.4739386
0.4501507
0.1227759
-0.2675237
-0.1571365
-0.0747297
0.01322535
0.09872555
0.1810748
0.2602188
0.3300802
0.3818442
0.4294913
0.4524513
0.4694775
0.4728306
0.4674626
0.4560783
0.4397206
0.4215924
0.6115777
-0.1181749
-0.06868455
-0.002003044
0.06629948
0.1281549
0.189703
0.2508276
0.3036719
0.3484714
0.384773
0.4096443
0.4243909
0.4313492
0.4280383
0.4206188
0.4085086
0.3939261
0.3714224
-0.03191655
0.01903955
0.06059012
0.1094991
0.1528571
0.1987149
0.2450807
0.2864496
0.322719
0.3514745
0.3743211
0.3858516
0.3939537
0.3941217
0.3881954
0.3794651
0.3682514
0.2929585
0.06518621
0.08764717
0.1127434
0.1446495
0.1739029
0.2073603
0.2415369
0.2734357
0.3022581
0.3236401
0.3450642
0.3552224
0.3626193
0.3642149
0.3599089
0.352871
0.34413
2.87921
0.1816608
0.1554445
0.1593517
0.1741792
0.1919862
0.2155168
0.2392783
0.2631727
0.2857356
0.3028323
0.3189967
0.3291937
0.3340881
0.3377077
0.3346975
0.3291284
0.3218078
3.69653
0.2589673
0.2057259
0.1979102
0.2000601
0.2087701
0.2230842
0.2380751
0.2549549
0.2720181
0.2853068
0.2978837
0.3068062
0.3108615
0.3132493
0.3121247
0.3076199
0.3015598
1.270137
0.316059
0.2454701
0.2287827
0.2202369
0.2223033
0.229597
0.2374511
0.248318
0.2603661
0.2703672
0.2793035
0.287281
0.2906258
0.2916091
0.2918033
0.2880689
0.2829133
1.223399
0.3414669
0.2760776
0.24873
0.2345359
0.2319092
0.2342046
0.236683
0.2425761
0.2502037
0.2573121
0.2635966
0.2702141
0.272727
0.2733141
0.2729107
0.2701938
0.265695
0.5467574
0.3225852
0.2841835
0.2584496
0.2420221
0.2374272
0.2363635
0.2352221
0.2372179
0.2411361
0.2456731
0.2500659
0.2543255
0.2566732
0.2568155
0.2559775
0.2537503
0.2497473
0.4670829
0.3227691
0.2837798
0.2623347
0.2449651
0.2383339
0.2359266
0.2328081
0.2317853
0.2327827
0.2350701
0.2377032
0.2405079
0.242075
0.2417881
0.2402751
0.2385744
0.2349428
0.3747251
0.2905434
0.2756216
0.2586207
0.243514
0.2354813
0.2322389
0.2276662
0.2258177
0.2248051
0.2250764
0.2262595
0.2277694
0.2286044
0.2279397
0.2262328
0.2241132
0.2211067
0.2685094
0.2647448
0.2620862
0.2497373
0.2390186
0.2317655
0.2263186
0.2213379
0.2182659
0.2160233
0.2153237
0.2154307
0.2156149
0.2160895
0.2150482
0.2131613
0.2109376
0.2081076
0.2487468
0.2461521
0.2428479
0.2369478
0.2307077
0.2256489
0.2196096
0.2141654
0.2104076
0.2071518
0.205721
0.2050272
0.204504
0.2043038
0.2029298
0.2008733
0.1982918
0.1957176
0.2301445
0.2284748
0.2273805
0.2262661
0.2217251
0.2172909
0.2116626
0.2062435
0.2025577
0.1983935
0.1962498
0.1949175
0.1938276
0.192833
0.1914321
0.1892273
0.1866025
0.1839751
0.214449
0.2158351
0.21416
0.2150671
0.212286
0.2079059
0.2028349
0.1978652
0.1945318
0.1894923
0.1867926
0.1849856
0.1834561
0.1821106
0.1804325
0.1781069
0.1754617
0.1727562
0.1992476
0.1971234
0.2005879
0.2013056
0.2007921
0.1979786
0.1933026
0.1887348
0.1840477
0.1800883
0.1772472
0.1751602
0.1733388
0.1717159
0.1698253
0.1674244
0.1647848
0.1620077
0.1818957
0.1807622
0.1865385
0.1890895
0.1891083
0.1873415
0.1832341
0.1790092
0.1742529
0.170531
0.1676607
0.1654228
0.1634093
0.1614985
0.1595303
0.1571976
0.1546295
0.1517624
0.1623329
0.1652035
0.1736096
0.177249
0.1775809
0.1758971
0.172873