/*--------------------------------*- C++ -*----------------------------------*\
| =========                 |                                                 |
| \\      /  F ield         | OpenFOAM: The Open Source CFD Toolbox           |
|  \\    /   O peration     | Version:  2206                                  |
|   \\  /    A nd           | Website:  www.openfoam.com                      |
|    \\/     M anipulation  |                                                 |
\*---------------------------------------------------------------------------*/
FoamFile
{
    version     2.0;
    format      ascii;
    arch        "LSB;label=32;scalar=64";
    class       surfaceScalarField;
    location    "1.4";
    object      phi.b;
}
// * * * * * * * * * * * * * * * * * * * * * * * * * * * * * * * * * * * * * //

dimensions      [0 3 -1 0 0 0 0];

oriented        oriented;

internalField   nonuniform List<scalar> 
26037
(
9.950668e-11
2.818407e-11
6.097223e-11
2.145059e-11
3.228263e-11
4.07851e-12
1.8762e-11
-3.196641e-12
1.187225e-11
-4.898624e-12
7.41608e-12
-5.431383e-12
-5.706657e-12
3.996632e-12
5.566791e-11
7.514646e-11
4.502358e-11
3.223835e-11
2.938546e-11
9.420702e-12
1.880861e-11
-9.092697e-13
1.216018e-11
-4.638355e-12
7.617982e-12
-6.017391e-12
-6.534724e-12
4.116017e-12
3.161811e-11
4.659079e-11
3.207927e-11
2.50036e-11
2.519883e-11
1.059056e-11
1.823373e-11
5.341197e-13
1.261351e-11
-3.957774e-12
8.246031e-12
-5.999917e-12
-6.876697e-12
4.69195e-12
1.990489e-11
3.104168e-11
2.404363e-11
1.939406e-11
2.21709e-11
9.548283e-12
1.72951e-11
2.046296e-12
1.288788e-11
-3.072174e-12
8.929629e-12
-5.520828e-12
-6.76217e-12
5.460243e-12
1.438184e-11
2.267913e-11
1.908398e-11
1.569691e-11
1.911774e-11
8.688406e-12
1.670311e-11
2.573021e-12
1.283935e-11
-1.608082e-12
9.428003e-12
-4.785779e-12
-6.335029e-12
6.178736e-12
1.074191e-11
1.699796e-11
1.532005e-11
1.274002e-11
1.642526e-11
7.760456e-12
1.524686e-11
2.855075e-12
1.289987e-11
-8.963601e-13
9.618224e-12
-3.570608e-12
-5.769999e-12
6.69965e-12
8.230897e-12
1.281667e-11
1.235278e-11
1.017327e-11
1.416875e-11
6.514762e-12
1.368344e-11
2.969986e-12
1.212439e-11
-4.274486e-13
9.881028e-12
-2.976256e-12
-4.861218e-12
6.960189e-12
6.502432e-12
9.617308e-12
1.003387e-11
7.94684e-12
1.186801e-11
5.336584e-12
1.209187e-11
2.618746e-12
1.115004e-11
-2.703973e-13
9.440039e-12
-2.607457e-12
-4.483156e-12
7.278855e-12
5.305112e-12
7.095052e-12
8.282685e-12
6.011591e-12
1.008155e-11
4.134289e-12
1.061641e-11
2.038847e-12
1.009629e-11
-3.812651e-13
8.809574e-12
-2.483482e-12
-4.299976e-12
7.019573e-12
4.457584e-12
5.0557e-12
6.94997e-12
4.333834e-12
8.62106e-12
2.958488e-12
9.290641e-12
1.324336e-12
9.03935e-12
-6.997739e-13
8.06423e-12
-2.578151e-12
-4.315741e-12
6.573311e-12
3.842067e-12
3.368414e-12
5.928055e-12
2.874122e-12
7.428421e-12
1.84162e-12
8.124808e-12
5.401399e-13
8.023796e-12
-1.163086e-12
7.255261e-12
-2.843974e-12
-4.499503e-12
5.980762e-12
3.383332e-12
1.942737e-12
5.133825e-12
1.594387e-12
6.45266e-12
7.974597e-13
7.109717e-12
-2.675795e-13
7.070897e-12
-1.715169e-12
6.419745e-12
-3.228811e-12
-4.802433e-12
5.27707e-12
3.032261e-12
7.137039e-13
4.506793e-12
4.609679e-13
5.649618e-12
-1.720612e-13
6.22912e-12
-1.069327e-12
6.191835e-12
-2.313288e-12
5.587317e-12
-3.685109e-12
-5.17354e-12
4.501577e-12
2.757785e-12
-3.667754e-13
4.004636e-12
-5.557133e-13
4.985484e-12
-1.074419e-12
5.468814e-12
-1.855511e-12
5.391676e-12
-2.934644e-12
4.788435e-12
-4.183435e-12
-5.578595e-12
3.70994e-12
2.539094e-12
-1.335762e-12
3.59644e-12
-1.47992e-12
4.430358e-12
-1.915249e-12
4.813868e-12
-2.605673e-12
4.684386e-12
-3.56872e-12
4.056549e-12
-4.701341e-12
-5.996783e-12
2.956828e-12
2.364159e-12
-2.225136e-12
3.265246e-12
-2.336238e-12
3.968527e-12
-2.705835e-12
4.253362e-12
-3.313881e-12
4.072987e-12
-4.214031e-12
3.408403e-12
-5.231861e-12
-6.440256e-12
2.294021e-12
2.226784e-12
-3.065526e-12
3.002448e-12
-3.150799e-12
3.598238e-12
-3.469453e-12
3.796113e-12
-4.012228e-12
3.551608e-12
-4.86648e-12
2.851502e-12
-5.781991e-12
-6.917417e-12
1.727085e-12
2.121685e-12
-3.885771e-12
2.798331e-12
-3.947739e-12
3.304706e-12
-4.22207e-12
3.427504e-12
-4.708113e-12
3.121112e-12
-5.524937e-12
2.390336e-12
-6.357436e-12
-7.433838e-12
1.259781e-12
2.048023e-12
-4.717216e-12
2.652115e-12
-4.75459e-12
3.088973e-12
-4.98593e-12
3.14965e-12
-5.419144e-12
2.784652e-12
-6.204352e-12
2.02093e-12
-6.971901e-12
-7.995637e-12
8.864787e-13
2.007847e-12
-5.596444e-12
2.567162e-12
-5.602982e-12
2.95377e-12
-5.784377e-12
2.954603e-12
-6.149239e-12
2.404817e-12
-6.753529e-12
1.745476e-12
-7.775948e-12
-8.60497e-12
6.124915e-13
2.007024e-12
-6.569246e-12
2.554685e-12
-6.533224e-12
2.914593e-12
-6.649134e-12
2.889174e-12
-6.939788e-12
2.449721e-12
-7.457852e-12
1.613352e-12
-8.480607e-12
-9.225353e-12
4.403749e-13
2.056395e-12
-7.695254e-12
2.634136e-12
-7.598757e-12
2.999997e-12
-7.626456e-12
2.958111e-12
-7.818764e-12
2.496396e-12
-8.239983e-12
1.596705e-12
-9.215891e-12
-9.869144e-12
3.846738e-13
2.169397e-12
-9.050892e-12
2.829359e-12
-8.86726e-12
3.239412e-12
-8.772407e-12
3.200897e-12
-8.823564e-12
2.712817e-12
-9.111012e-12
1.736822e-12
-9.99152e-12
-1.055944e-11
4.75705e-13
2.365038e-12
-1.073489e-11
3.174092e-12
-1.042562e-11
3.675223e-12
-1.015717e-11
3.668197e-12
-1.000726e-11
3.140324e-12
-1.007952e-11
1.797236e-12
-1.048927e-11
-1.160956e-11
7.515135e-13
2.668642e-12
-1.287455e-11
3.715005e-12
-1.238779e-11
4.371541e-12
-1.18764e-11
4.442565e-12
-1.145189e-11
3.932317e-12
-1.123969e-11
2.872301e-12
-1.136378e-11
-1.236274e-11
1.370593e-12
3.110836e-12
-1.563062e-11
4.510965e-12
-1.49015e-11
5.412409e-12
-1.405994e-11
5.615448e-12
-1.325909e-11
5.127684e-12
-1.265336e-11
4.021428e-12
-1.240764e-11
-1.310953e-11
2.310608e-12
3.72905e-12
-1.920306e-11
5.624059e-12
-1.814427e-11
6.882584e-12
-1.686827e-11
7.292049e-12
-1.556149e-11
6.87056e-12
-1.442816e-11
5.688703e-12
-1.365949e-11
-1.388246e-11
3.721836e-12
4.544171e-12
-2.38132e-11
7.133225e-12
-2.235623e-11
8.89655e-12
-2.05056e-11
9.624386e-12
-1.854243e-11
9.32159e-12
-1.66996e-11
8.048063e-12
-1.518874e-11
-1.427059e-11
5.417207e-12
5.611056e-12
-2.973762e-11
9.105406e-12
-2.779501e-11
1.155692e-11
-2.522106e-11
1.275439e-11
-2.243905e-11
1.269387e-11
-1.969589e-11
1.146229e-11
-1.725063e-11
-1.537757e-11
9.194277e-12
6.70153e-12
-3.701873e-11
1.156347e-11
-3.497826e-11
1.496258e-11
-3.134331e-11
1.682869e-11
-2.754671e-11
1.716866e-11
-2.369931e-11
1.603224e-11
-2.005629e-11
-1.693857e-11
1.35596e-11
8.540656e-12
-4.638824e-11
1.459094e-11
-4.37467e-11
1.917625e-11
-3.918867e-11
2.196207e-11
-3.421999e-11
2.294077e-11
-2.908229e-11
2.209881e-11
-2.396941e-11
-1.919893e-11
1.947315e-11
1.044663e-11
-5.791894e-11
1.751589e-11
-5.39517e-11
2.403092e-11
-4.96293e-11
2.819725e-11
-4.304109e-11
3.016477e-11
-3.633277e-11
2.997578e-11
-2.952329e-11
-2.272709e-11
2.755059e-11
1.251905e-11
-7.173559e-11
2.196271e-11
-6.687588e-11
2.892781e-11
-6.112994e-11
3.537369e-11
-5.511648e-11
3.888215e-11
-4.613339e-11
3.988404e-11
-3.743002e-11
-2.821996e-11
3.811496e-11
1.462358e-11
-8.780725e-11
2.602635e-11
-8.213538e-11
3.556198e-11
-7.568605e-11
4.328369e-11
-6.934681e-11
4.891501e-11
-5.917708e-11
5.191576e-11
-4.864628e-11
-3.684157e-11
5.174827e-11
1.654346e-11
-1.058441e-10
2.978287e-11
-9.952538e-11
4.1307e-11
-9.278648e-11
4.999701e-11
-8.534667e-11
5.93716e-11
-7.73549e-11
6.579419e-11
-6.472817e-11
-5.026547e-11
6.875145e-11
1.791111e-11
-1.251441e-10
3.252595e-11
-1.184275e-10
4.577446e-11
-1.119799e-10
5.799648e-11
-1.052309e-10
6.846621e-11
-9.750452e-11
8.042514e-11
-8.807224e-11
-7.075345e-11
8.874953e-11
1.833925e-11
-1.445712e-10
3.355847e-11
-1.378364e-10
4.790107e-11
-1.323748e-10
6.217172e-11
-1.27435e-10
7.702077e-11
-1.221314e-10
9.357853e-11
-1.168962e-10
-1.008624e-10
1.100804e-10
1.738255e-11
-1.624961e-10
3.202586e-11
-1.56243e-10
4.642589e-11
-1.525135e-10
6.189215e-11
-1.506034e-10
7.973157e-11
-1.496021e-10
9.865296e-11
-1.480199e-10
-1.452812e-10
1.283636e-10
1.441096e-11
-1.766117e-10
2.713263e-11
-1.718708e-10
4.00059e-11
-1.702462e-10
5.485433e-11
-1.722048e-10
7.361295e-11
-1.768841e-10
9.838986e-11
-1.832235e-10
-1.961534e-10
1.359239e-10
8.090893e-12
-1.832633e-10
1.789585e-11
-1.832744e-10
2.789174e-11
-1.835873e-10
4.005143e-11
-1.894035e-10
5.723292e-11
-2.006055e-10
8.227632e-11
-2.162379e-10
-2.36956e-10
1.13363e-10
3.259317e-12
-1.835022e-10
1.829047e-12
-1.816249e-10
8.937771e-12
-1.920754e-10
1.687139e-11
-2.000374e-10
2.913222e-11
-2.165223e-10
4.886666e-11
-2.399163e-10
-2.823582e-10
9.143601e-11
-4.387433e-12
-1.742215e-10
-1.045481e-11
-1.731441e-10
-2.107787e-11
-1.804418e-10
-1.517167e-11
-2.057378e-10
-7.437098e-12
-2.236641e-10
1.967265e-11
-2.630995e-10
-3.682803e-10
1.195188e-10
-1.325218e-11
-1.539604e-10
-2.762826e-11
-1.541414e-10
-4.247618e-11
-1.618028e-10
-6.325191e-11
-1.802087e-10
-3.98522e-11
-2.372798e-10
5.085112e-11
-3.308201e-10
-5.327417e-10
2.619137e-10
-2.258181e-11
-1.222349e-10
-4.568658e-11
-1.238141e-10
-6.872137e-11
-1.309017e-10
-8.700093e-11
-1.491447e-10
-5.247499e-11
-2.423881e-10
1.54399e-10
-4.748935e-10
-6.692027e-10
5.578073e-10
-3.199555e-11
-7.896624e-11
-6.151916e-11
-8.323468e-11
-8.835503e-11
-8.897509e-11
-7.431766e-11
-1.331569e-10
3.614995e-11
-2.914567e-10
3.50282e-10
-5.08919e-10
-4.968015e-10
1.099637e-09
-3.748914e-11
-2.772118e-11
-7.811521e-11
-2.590382e-11
-9.526101e-11
-4.26636e-11
-1.011631e-11
-1.536035e-10
2.267125e-10
-3.046384e-10
8.231008e-10
-3.396678e-10
-1.777793e-10
1.888159e-09
-3.653637e-11
2.597818e-11
-7.183245e-11
3.465267e-11
-5.29568e-11
-8.021099e-12
1.039863e-10
-1.339858e-10
6.2605e-10
-1.526905e-10
1.510165e-09
-4.872718e-11
1.290356e-10
2.445863e-09
-2.978817e-11
7.754977e-11
-3.2627e-11
7.989238e-11
5.321251e-11
2.189046e-11
3.857685e-10
-2.179141e-11
1.27256e-09
6.294548e-11
2.344289e-09
2.043705e-10
5.770525e-10
3.134802e-09
-1.253825e-11
1.203917e-10
3.874908e-11
1.023041e-10
2.598158e-10
6.457207e-11
8.805806e-10
1.246491e-10
1.821792e-09
2.762141e-10
2.754323e-09
3.848474e-10
4.359603e-10
4.081726e-09
9.032373e-12
1.556253e-10
1.257878e-10
1.242895e-10
5.484065e-10
1.265714e-10
1.39901e-09
2.556392e-10
2.377884e-09
4.184893e-10
3.290398e-09
5.034264e-10
5.135488e-10
4.308901e-09
5.205327e-11
1.718529e-10
2.707833e-10
1.565136e-10
8.633685e-10
2.560907e-10
1.829395e-09
3.641365e-10
2.814356e-09
4.93604e-10
3.764608e-09
5.61917e-10
6.256533e-10
4.792893e-09
1.228812e-10
1.503305e-10
4.712121e-10
1.735317e-10
1.356261e-09
2.705504e-10
2.490768e-09
4.113709e-10
3.628394e-09
4.856331e-10
4.795384e-09
5.499059e-10
1.151446e-09
5.600607e-09
2.012577e-10
8.942803e-11
6.913127e-10
1.441078e-10
1.607718e-09
2.535023e-10
2.678333e-09
3.934692e-10
3.65027e-09
5.056268e-10
4.658721e-09
5.796312e-10
8.057322e-10
6.347445e-09
2.502674e-10
2.011997e-11
8.354928e-10
9.831684e-11
1.804096e-09
2.229387e-10
2.836932e-09
3.768826e-10
3.772211e-09
5.189566e-10
4.739667e-09
6.32461e-10
7.441419e-10
6.072249e-09
2.867169e-10
-4.929549e-11
9.436285e-10
4.264667e-11
1.96774e-09
1.710056e-10
3.026548e-09
3.315414e-10
3.999148e-09
5.025599e-10
5.022893e-09
6.737748e-10
8.474037e-10
6.250522e-09
3.327201e-10
-1.405103e-10
1.059128e-09
-3.899409e-11
2.165604e-09
7.627e-11
3.314879e-09
2.267983e-10
4.403046e-09
4.172603e-10
5.584686e-09
6.429069e-10
8.967684e-10
7.001326e-09
3.240304e-10
-2.25128e-10
1.04623e-09
-1.19858e-10
2.14877e-09
-1.694862e-11
3.300066e-09
1.187404e-10
4.395262e-09
3.224206e-10
5.589432e-09
5.934341e-10
9.164826e-10
7.024641e-09
2.660283e-10
-2.791555e-10
9.079275e-10
-1.690784e-10
1.925889e-09
-6.763178e-11
2.994788e-09
6.267699e-11
3.994566e-09
2.764402e-10
5.064215e-09
5.807647e-10
9.376094e-10
6.354675e-09
2.181052e-10
-3.244939e-10
7.77029e-10
-2.036791e-10
1.733897e-09
-9.499186e-11
2.780299e-09
3.420234e-11
3.753097e-09
2.5467e-10
4.781951e-09
5.726005e-10
7.867329e-10
6.194495e-09
1.578546e-10
-3.520671e-10
6.083404e-10
-2.184861e-10
1.501613e-09
-1.059219e-10
2.581442e-09
1.193337e-11
3.592347e-09
2.462338e-10
4.661219e-09
5.513432e-10
3.887778e-10
6.405714e-09
7.353666e-11
-3.337921e-10
3.719613e-10
-1.869327e-10
1.201648e-09
-7.495175e-11
2.334129e-09
5.932237e-11
3.504165e-09
2.21744e-10
4.723946e-09
4.967404e-10
8.174546e-10
5.626233e-09
5.957129e-12
-2.786387e-10
1.821088e-10
-1.49238e-10
7.268454e-10
3.91749e-11
1.680628e-09
1.579369e-10
2.710561e-09
2.708196e-10
3.732026e-09
5.007462e-10
8.50506e-10
4.837359e-09
-3.398141e-11
-2.043441e-10
5.108178e-11
-1.205956e-10
4.218512e-10
7.526023e-11
1.232712e-09
2.606773e-10
2.247139e-09
3.836552e-10
3.234647e-09
5.703809e-10
8.669391e-10
4.325378e-09
-5.475739e-11
-1.215944e-10
-2.730752e-11
-8.703142e-11
1.641421e-10
8.172966e-11
7.269605e-10
3.444585e-10
1.676415e-09
5.440301e-10
2.690634e-09
6.957589e-10
7.121514e-10
4.055193e-09
-6.885314e-11
-3.219222e-11
-9.514576e-11
-2.365474e-11
-1.111425e-11
8.231823e-11
2.911431e-10
3.572067e-10
1.111462e-09
6.690857e-10
2.24603e-09
8.683141e-10
1.013245e-09
3.199331e-09
-6.940731e-11
5.320993e-11
-1.307462e-10
6.012651e-11
-1.102335e-10
1.064643e-10
5.065641e-11
3.094763e-10
5.530481e-10
6.377326e-10
1.472249e-09
9.714852e-10
1.158205e-09
2.543518e-09
-6.281912e-11
1.288094e-10
-1.303972e-10
1.421065e-10
-1.612547e-10
1.616006e-10
-4.938478e-11
2.497407e-10
2.152686e-10
5.013953e-10
8.126341e-10
9.081932e-10
1.243696e-09
1.902918e-09
-5.196137e-11
1.9121e-10
-1.001372e-10
1.993956e-10
-1.439455e-10
2.171307e-10
-1.257898e-10
2.551147e-10
2.81961e-11
3.946482e-10
3.64661e-10
7.142662e-10
1.101767e-09
1.134189e-09
-3.678908e-11
2.363768e-10
-7.372251e-11
2.419638e-10
-1.100485e-10
2.587094e-10
-1.362272e-10
2.90035e-10
-9.000813e-11
3.696053e-10
1.610978e-10
5.08749e-10
8.119207e-10
5.797381e-10
-2.305168e-11
2.656825e-10
-4.703156e-11
2.692263e-10
-7.107313e-11
2.844374e-10
-1.014453e-10
3.220532e-10
-7.992517e-11
3.533155e-10
2.642509e-11
4.171688e-10
5.770801e-10
2.938996e-10
-1.062083e-11
2.804278e-10
-2.278572e-11
2.826342e-10
-3.97018e-11
3.006705e-10
-3.732141e-11
3.175891e-10
-3.305048e-11
3.467857e-10
-7.177578e-12
3.913229e-10
4.451834e-10
1.323871e-10
-7.430112e-14
2.827368e-10
-4.944033e-12
2.867095e-10
3.779003e-13
2.926381e-10
6.942202e-12
3.066289e-10
1.66119e-11
3.312905e-10
4.553924e-11
3.558435e-10
3.892932e-10
9.539539e-11
7.010886e-12
2.764003e-10
1.655168e-11
2.746823e-10
2.685757e-11
2.779014e-10
3.816022e-11
2.889008e-10
6.146551e-11
2.997527e-10
9.20622e-11
3.153386e-10
3.501779e-10
1.188877e-10
1.545778e-11
2.60502e-10
2.986715e-11
2.565918e-10
4.499163e-11
2.57052e-10
6.386929e-11
2.622061e-10
8.806025e-11
2.658349e-10
1.190952e-10
2.724882e-10
2.877551e-10
1.663967e-10
2.017535e-11
2.391187e-10
3.787829e-11
2.344748e-10
5.518745e-11
2.332547e-10
7.727437e-11
2.315654e-10
1.013247e-10
2.313001e-10
1.229473e-10
2.377079e-10
2.244892e-10
1.705334e-10
2.232415e-11
2.15122e-10
4.127146e-11
2.107675e-10
6.170048e-11
2.061809e-10
8.25164e-11
2.022363e-10
1.023063e-10
2.009341e-10
1.315938e-10
1.955748e-10
1.806941e-10
1.613897e-10
2.280406e-11
1.904339e-10
4.292568e-11
1.859065e-10
6.243514e-11
1.80319e-10
8.152746e-11
1.751107e-10
9.945423e-11
1.729732e-10
1.240455e-10
1.595972e-10
1.471136e-10
1.453919e-10
2.180201e-11
1.667174e-10
4.147237e-11
1.61725e-10
5.969547e-11
1.562321e-10
7.356324e-11
1.537034e-10
9.47706e-11
1.428054e-10
1.121104e-10
1.325809e-10
1.211656e-10
1.276767e-10
2.063489e-11
1.442929e-10
3.849933e-11
1.397378e-10
5.491612e-11
1.345976e-10
7.076798e-11
1.312096e-10
8.566266e-11
1.204579e-10
9.886997e-11
1.112196e-10
1.009333e-10
1.104893e-10
1.87298e-11
1.239902e-10
3.462337e-11
1.201629e-10
4.723982e-11
1.173188e-10
6.314738e-11
1.096251e-10
7.541578e-11
1.019315e-10
8.595733e-11
9.389586e-11
8.503099e-11
9.482016e-11
1.665803e-11
1.060269e-10
2.927076e-11
1.042675e-10
4.365591e-11
9.893332e-11
5.557258e-11
9.305166e-11
6.559888e-11
8.669565e-11
7.413229e-11
7.977204e-11
7.232563e-11
8.112197e-11
1.459477e-11
9.042497e-11
2.704354e-11
8.899009e-11
3.8409e-11
8.426742e-11
4.824137e-11
7.935847e-11
5.666018e-11
7.396517e-11
6.370839e-11
6.812984e-11
6.198497e-11
6.939792e-11
1.213916e-11
7.756338e-11
2.349896e-11
7.523055e-11
3.32538e-11
7.177222e-11
4.16508e-11
6.776064e-11
4.877078e-11
6.327903e-11
5.465194e-11
5.846117e-11
5.344015e-11
5.937717e-11
1.116858e-11
6.596445e-11
2.042064e-11
6.397481e-11
2.872288e-11
6.120108e-11
3.591771e-11
5.791188e-11
4.198516e-11
5.424754e-11
4.694415e-11
5.034718e-11
4.641902e-11
5.077332e-11
9.752837e-12
5.604966e-11
1.767946e-11
5.438004e-11
2.483887e-11
5.216902e-11
3.104587e-11
4.949526e-11
3.62878e-11
4.651382e-11
4.057854e-11
4.337172e-11
4.084711e-11
4.328429e-11
8.575481e-12
4.754992e-11
1.536631e-11
4.620464e-11
2.15646e-11
4.442431e-11
2.694534e-11
4.226039e-11
3.149099e-11
3.984167e-11
3.523992e-11
3.728591e-11
3.526507e-11
3.820463e-11
7.563838e-12
4.027133e-11
1.343762e-11
3.918582e-11
1.883196e-11
3.77506e-11
2.35196e-11
3.600124e-11
2.747736e-11
3.403978e-11
3.073364e-11
3.195758e-11
3.028733e-11
3.335189e-11
6.728988e-12
3.401035e-11
1.184493e-11
3.312605e-11
1.656822e-11
3.19655e-11
2.067004e-11
3.055127e-11
2.412003e-11
2.896473e-11
2.690831e-11
2.729648e-11
2.582882e-11
2.918931e-11
6.046859e-12
2.858969e-11
1.053771e-11
2.785959e-11
1.470302e-11
2.691478e-11
1.831621e-11
2.576512e-11
2.132882e-11
2.449011e-11
2.336169e-11
2.347215e-11
2.151636e-11
2.56388e-11
5.491449e-12
2.386149e-11
9.467012e-12
2.324913e-11
1.316567e-11
2.247464e-11
1.63599e-11
2.153831e-11
1.901335e-11
2.050192e-11
2.109855e-11
1.967216e-11
1.801834e-11
2.269004e-11
5.040427e-12
1.970367e-11
8.591863e-12
1.918267e-11
1.190019e-11
1.854509e-11
1.473895e-11
1.7783e-11
1.706962e-11
1.69434e-11
1.889622e-11
1.623753e-11
1.491999e-11
2.017254e-11
4.675659e-12
1.601601e-11
7.879405e-12
1.556734e-11
1.08624e-11
1.504324e-11
1.33973e-11
1.443088e-11
1.543915e-11
1.376703e-11
1.701268e-11
1.314163e-11
1.213041e-11
1.803345e-11
4.383443e-12
1.271494e-11
7.305731e-12
1.232452e-11
1.002414e-11
1.189495e-11
1.230847e-11
1.141091e-11
1.401e-11
1.097e-11
1.542164e-11
1.027829e-11
9.608204e-12
1.621862e-11
4.151968e-12
9.732036e-12
6.847751e-12
9.391362e-12
9.347008e-12
9.046277e-12
1.142142e-11
8.674497e-12
1.302645e-11
8.318015e-12
1.411348e-11
7.818188e-12
7.347424e-12
1.468863e-11
3.973519e-12
7.00989e-12
6.491593e-12
6.71465e-12
8.814367e-12
6.450251e-12
1.07109e-11
6.187595e-12
1.214732e-11
5.908183e-12
1.303785e-11
5.620603e-12
5.327109e-12
1.341595e-11
3.844032e-12
4.497989e-12
6.229464e-12
4.247117e-12
8.415856e-12
4.063676e-12
1.016964e-11
3.910524e-12
1.145124e-11
3.715593e-12
1.217473e-11
3.64075e-12
3.526702e-12
1.237364e-11
3.761583e-12
2.150328e-12
6.057217e-12
1.946541e-12
8.14304e-12
1.851961e-12
9.79262e-12
1.809628e-12
1.093922e-11
1.725023e-12
1.151767e-11
1.857523e-12
1.931399e-12
1.155272e-11
3.728284e-12
-7.818572e-14
5.980302e-12
-2.305462e-13
8.013991e-12
-2.34344e-13
9.67871e-12
-2.550235e-13
1.061272e-11
6.133376e-15
1.105727e-11
2.565915e-13
5.178201e-13
1.095072e-11
3.746025e-12
-2.230719e-12
5.997169e-12
-2.320867e-12
7.998092e-12
-2.210471e-12
9.521055e-12
-2.118347e-12
1.04458e-11
-1.638831e-12
1.079011e-11
-1.197806e-12
-7.424105e-13
1.056796e-11
3.821323e-12
-4.352421e-12
6.118787e-12
-4.361697e-12
8.124557e-12
-4.105927e-12
9.605863e-12
-3.862493e-12
1.046084e-11
-3.148848e-12
1.07071e-11
-2.507517e-12
-1.868993e-12
1.038573e-11
3.966971e-12
-6.494642e-12
6.363919e-12
-6.393451e-12
8.407016e-12
-5.947735e-12
9.859953e-12
-5.506326e-12
1.063518e-11
-4.526902e-12
1.077498e-11
-3.673826e-12
-2.869458e-12
1.035268e-11
4.201254e-12
-8.71828e-12
6.758951e-12
-8.458202e-12
8.865421e-12
-7.753569e-12
1.028543e-11
-7.047197e-12
1.095644e-11
-5.757216e-12
1.09562e-11
-4.676568e-12
-3.721241e-12
1.039553e-11
4.554357e-12
-1.109918e-11
7.343634e-12
-1.060042e-11
9.530775e-12
-9.532433e-12
1.08919e-11
-8.466549e-12
1.140982e-11
-6.807975e-12
1.120935e-11
-5.477924e-12
-4.381524e-12
1.044436e-11
5.073329e-12
-1.373703e-11
8.175439e-12
-1.286753e-11
1.044388e-11
-1.128118e-11
1.16907e-11
-9.728252e-12
1.197683e-11
-7.632005e-12
1.149393e-11
-6.031973e-12
-4.805113e-12
1.044434e-11
5.833076e-12
-1.677107e-11
9.335266e-12
-1.530633e-11
1.167037e-11
-1.299127e-11
1.268826e-11
-1.075615e-11
1.263027e-11
-8.171187e-12
1.176536e-11
-6.295288e-12
-4.965176e-12
1.034905e-11
6.953384e-12
-2.04078e-11
1.09554e-11
-1.798293e-11
1.350142e-11
-1.48627e-11
1.389439e-11
-1.124001e-11
1.332219e-11
-8.349331e-12
1.196253e-11
-6.245945e-12
-4.563289e-12
9.843334e-12
8.607366e-12
-2.495631e-11
1.310911e-11
-2.091026e-11
1.515615e-11
-1.631699e-11
1.518607e-11
-1.160178e-11
1.396254e-11
-8.188529e-12
1.16817e-11
-5.537738e-12
-4.255879e-12
9.419287e-12
1.104858e-11
-3.094363e-11
1.596118e-11
-2.418074e-11
1.740376e-11
-1.753534e-11
1.65369e-11
-1.158915e-11
1.405079e-11
-7.235085e-12
1.147646e-11
-4.962545e-12
-3.861688e-12
8.767266e-12
1.463032e-11
-3.957583e-11
1.964311e-11
-2.816122e-11
1.996784e-11
-1.864081e-11
1.731597e-11
-1.066717e-11
1.421192e-11
-6.440637e-12
1.097531e-11
-4.349396e-12
-3.53417e-12
7.880811e-12
2.012743e-11
-5.543913e-11
2.45334e-11
-3.403484e-11
2.236094e-11
-1.906642e-11
1.829576e-11
-9.824426e-12
1.402122e-11
-5.59953e-12
1.017997e-11
-3.905608e-12
-3.456734e-12
6.805469e-12
3.181081e-11
-8.48387e-11
3.215997e-11
-4.07117e-11
2.592091e-11
-1.835648e-11
1.905012e-11
-8.298665e-12
1.349869e-11
-4.836326e-12
9.178473e-12
-3.84307e-12
-3.785829e-12
5.668853e-12
5.56617e-11
4.570704e-11
3.005517e-11
1.93907e-11
1.272411e-11
8.180523e-12
4.690277e-12
1.13748e-12
-5.920224e-12
-1.188335e-12
-6.123423e-12
-1.431209e-12
-6.317582e-12
-1.447857e-12
-1.723274e-12
-3.118464e-12
1.945236e-12
-2.113486e-12
-3.267987e-12
2.337001e-12
-2.730203e-12
-3.162544e-12
3.593708e-12
-5.472329e-12
-1.871111e-12
1.202486e-12
-6.740695e-12
-1.141242e-12
-6.837128e-12
-1.400964e-12
-6.921652e-12
-1.364745e-12
3.203952e-12
-1.706803e-12
-3.283748e-12
3.286922e-12
1.868732e-12
-1.919371e-12
-3.371791e-12
2.973522e-12
1.884198e-12
-1.668423e-12
-3.140671e-12
8.250564e-13
9.691679e-13
1.418414e-12
-3.030723e-12
1.685053e-12
-7.218401e-12
-7.45305e-13
-7.313779e-12
-2.455466e-12
-7.29295e-12
-1.601158e-12
-3.705762e-12
3.401148e-12
3.433284e-12
-1.512449e-12
-3.715407e-12
3.515901e-12
-1.631002e-12
-3.629177e-12
3.379578e-12
1.527872e-12
-1.279224e-12
-3.591038e-12
3.782901e-12
8.802729e-13
-3.148209e-13
-4.095506e-12
2.433903e-12
-7.345115e-12
-1.587326e-14
-7.582674e-12
-9.079268e-13
-7.66726e-12
-7.758406e-13
-1.175906e-12
-3.751751e-12
3.817178e-12
1.351954e-12
-1.363378e-12
-3.948756e-12
3.760708e-12
1.288929e-12
-1.128643e-12
-3.888129e-12
4.244341e-12
9.018682e-13
-5.426417e-13
-4.343314e-12
3.219436e-12
-7.1873e-12
7.66082e-13
-7.629203e-12
-5.463438e-13
-7.848197e-12
-4.089352e-13
3.881786e-12
-8.420188e-13
-3.879732e-12
4.060695e-12
1.003494e-12
-1.042513e-12
-4.157831e-12
3.984918e-12
1.005237e-12
-8.98534e-13
-4.062391e-12
4.410158e-12
7.35165e-13
-4.235685e-13
-4.464793e-12
3.900738e-12
-6.867239e-12
1.514422e-12
-7.526485e-12
-1.661386e-13
-7.903729e-12
-2.01236e-14
3.987745e-12
-4.534124e-13
-3.964298e-12
4.248723e-12
-6.85738e-13
-4.327074e-12
6.286933e-13
4.128215e-12
6.679216e-13
-5.868646e-13
-4.186489e-12
4.513859e-12
4.498932e-13
-1.519994e-13
-4.563543e-12
4.399567e-12
-6.510874e-12
2.149344e-12
-7.373991e-12
2.017587e-13
-7.934256e-12
3.454529e-13
-5.155596e-14
-4.044167e-12
4.054515e-12
4.390643e-12
-3.289064e-14
-2.795324e-13
-4.19912e-12
4.239957e-12
2.850918e-13
-2.170131e-13
-4.292577e-12
4.606819e-12
9.925129e-14
1.702943e-13
-4.636891e-12
4.683244e-12
-5.934193e-12
2.633759e-12
-7.270852e-12
5.258717e-13
-8.023204e-12
6.606807e-13
4.133575e-12
2.960769e-13
-4.131043e-12
4.245215e-12
1.124681e-13
-4.314303e-12
-1.575583e-13
4.350396e-12
-1.355389e-13
2.109048e-13
-4.418357e-12
4.665866e-12
-3.279916e-13
5.911407e-13
-4.700703e-12
5.002316e-12
-5.818614e-12
2.926782e-12
-7.054516e-12
7.85779e-13
-8.2474e-12
9.045218e-13
6.133251e-13
-4.280448e-12
4.234927e-12
4.406149e-12
-5.255933e-13
5.284234e-13
-4.523123e-12
4.504141e-12
-5.951848e-13
7.083396e-13
-4.617534e-12
4.743091e-12
-8.529108e-13
1.122462e-12
-4.79863e-12
4.825376e-12
-5.877431e-12
3.21721e-12
-7.254863e-12
9.50155e-13
-8.453245e-12
1.0432e-12
4.418959e-12
8.560296e-13
-4.537539e-12
4.679138e-12
-8.512332e-13
9.374439e-13
-4.881402e-12
4.771735e-12
-1.094276e-12
1.298302e-12
-4.984216e-12
4.877054e-12
-1.519844e-12
1.828075e-12
-4.991937e-12
4.435574e-12
-6.089966e-12
3.021807e-12
-7.604548e-12
1.07639e-12
-9.063297e-12
1.139596e-12
4.724138e-12
9.71851e-13
-4.831842e-12
5.143773e-12
-1.078904e-12
1.289946e-12
-5.474109e-12
5.282658e-12
-1.60941e-12
2.014175e-12
-5.704137e-12
5.174241e-12
-2.451894e-12
2.915083e-12
-5.480949e-12
3.850812e-12
-6.403543e-12
2.53541e-12
-8.0358e-12
9.050297e-13
-9.744594e-12
9.079451e-13
5.069269e-12
9.813459e-13
-5.362128e-12
5.878213e-12
-1.176105e-12
1.426527e-12
-6.253513e-12
6.296486e-12
-1.979373e-12
2.766475e-12
-7.108159e-12
6.006673e-12
-3.80141e-12
4.978898e-12
-7.110192e-12
3.10778e-12
-6.753316e-12
1.761552e-12
-8.437163e-12
4.855195e-13
-1.030234e-11
4.293105e-13
5.590659e-12
5.585625e-13
-5.88356e-12
6.777115e-12
-7.448144e-13
1.118844e-12
-7.279566e-12
8.133025e-12
-1.77606e-12
2.687661e-12
-9.073007e-12
9.483861e-12
-4.489772e-12
8.782361e-12
-1.386141e-11
2.290671e-12
-7.095624e-12
8.350509e-13
-8.741915e-12
-1.172896e-13
-1.057076e-11
-1.929404e-13
6.002481e-12
-1.75076e-13
-6.16897e-12
7.672867e-12
2.191877e-13
-1.44427e-13
-7.877209e-12
9.944066e-12
-2.087087e-13
1.437026e-12
-1.119897e-11
8.325218e-12
-5.904653e-12
2.328974e-11
-2.643193e-11
1.504426e-12
-7.431281e-12
-4.590812e-14
-8.972157e-12
-6.95769e-13
-1.062062e-11
-7.27948e-13
6.112235e-12
-9.233482e-13
-6.113508e-12
7.740777e-12
1.2897e-12
-1.781212e-12
-7.378927e-12
1.04443e-11
2.653863e-12
-4.592486e-12
-8.511941e-12
2.093333e-11
9.832821e-12
-2.558456e-11
-3.611468e-12
8.276344e-13
-7.78437e-12
-7.358287e-13
-9.212863e-12
-1.067736e-12
-1.068196e-11
-1.050168e-12
5.989528e-12
-1.329327e-12
-5.961026e-12
7.023589e-12
1.698896e-12
-2.091449e-12
-6.761441e-12
7.602345e-12
2.57966e-12
-3.235609e-12
-6.955958e-12
8.402692e-12
4.324802e-12
-7.356225e-12
-4.642149e-12
2.765106e-13
-8.186769e-12
-1.234646e-12
-9.529458e-12
-1.262491e-12
-1.08863e-11
-1.224407e-12
5.904752e-12
-1.468363e-12
-5.936563e-12
6.623031e-12
1.74921e-12
-1.877428e-12
-6.633482e-12
6.843776e-12
1.969448e-12
-1.935449e-12
-6.888839e-12
6.94673e-12
1.674631e-12
-1.00998e-12
-7.147053e-12
-1.633054e-13
-8.650411e-12
-1.600696e-12
-9.941705e-12
-1.375805e-12
-1.124997e-11
-1.327648e-12
5.911456e-12
-1.525824e-12
-5.997532e-12
7.536203e-12
1.701492e-12
-1.706367e-12
-7.684903e-12
7.019711e-12
1.663768e-12
-1.518532e-12
-7.170711e-12
7.66947e-12
1.227012e-12
-4.979431e-13
-7.930774e-12
-5.101208e-13
-9.174279e-12
-1.880279e-12
-1.044062e-11
-1.458075e-12
-1.173902e-11
-1.404823e-12
6.085626e-12
-1.566727e-12
-6.213565e-12
7.824515e-12
1.6434e-12
-1.63532e-12
-7.988628e-12
7.332232e-12
1.54636e-12
-1.380515e-12
-7.49638e-12
8.178177e-12
1.106821e-12
-4.015823e-13
-8.392035e-12
-7.705312e-13
-9.743612e-12
-2.091717e-12
-1.100476e-11
-1.52298e-12
-1.231517e-11
-1.463357e-12
6.337961e-12
-1.602556e-12
-6.490938e-12
8.168388e-12
1.648177e-12
-1.60042e-12
-8.365938e-12
7.661516e-12
1.484287e-12
-1.301733e-12
-7.832341e-12
8.542785e-12
1.021476e-12
-3.079849e-13
-8.738026e-12
-9.432007e-13
-1.034595e-11
-2.233913e-12
-1.161356e-11
-1.567968e-12
-1.294714e-11
-1.498718e-12
6.6403e-12
-1.624736e-12
-6.80908e-12
8.572713e-12
1.642357e-12
-1.563214e-12
-8.792656e-12
8.009168e-12
1.418447e-12
-1.20832e-12
-8.195018e-12
8.900575e-12
8.973999e-13
-1.454879e-13
-9.105537e-12
-1.014788e-12
-1.097117e-11
-2.291782e-12
-1.224965e-11
-1.588205e-12
-1.360315e-11
-1.5053e-12
6.977279e-12
-1.626179e-12
-7.155512e-12
9.021496e-12
1.616752e-12
-1.504985e-12
-9.261056e-12
8.389485e-12
1.32935e-12
-1.086586e-12
-8.592451e-12
9.301138e-12
7.374393e-13
5.707519e-14
-9.519519e-12
-9.602255e-13
-1.160887e-11
-2.235476e-12
-1.28985e-11
-1.602964e-12
-1.435983e-11
-1.316175e-12
7.344267e-12
-1.576863e-12
-7.588041e-12
9.504874e-12
1.556179e-12
-1.455087e-12
-9.719416e-12
8.803464e-12
1.21248e-12
-9.351599e-13
-9.023121e-12
9.746576e-12
5.457353e-13
2.959089e-13
-9.979956e-12
-7.393596e-13
-1.224853e-11
-2.105978e-12
-1.347503e-11
-2.970618e-12
-1.488719e-11
-1.536142e-12
-8.112703e-12
8.002206e-12
7.73335e-12
-1.370579e-12
-8.438305e-12
9.237751e-12
-2.06989e-12
-8.738769e-12
9.298959e-12
1.108018e-12
-7.508095e-13
-9.570725e-12
1.02254e-11
3.183864e-13
5.793e-13
-1.047896e-11
-2.739344e-13
-1.28203e-11
-1.706036e-12
-1.40258e-11
-1.167864e-12
-1.555773e-11
-1.274147e-12
-1.338375e-12
-8.142256e-12
8.938283e-12
1.304144e-12
-1.176381e-12
-9.113641e-12
9.805527e-12
8.830462e-13
-5.311794e-13
-1.004293e-11
1.072886e-11
5.462316e-14
9.019899e-13
-1.100214e-11
4.640608e-13
-1.33195e-11
-1.162866e-12
-1.445216e-11
-1.17807e-12
-1.595909e-11
-9.896326e-13
8.382497e-12
-1.212663e-12
-8.49588e-12
9.296292e-12
1.162281e-12
-1.006617e-12
-9.476821e-12
1.028154e-11
6.894325e-13
-3.03214e-13
-1.051939e-11
1.128124e-11
-2.254807e-13
1.258806e-12
-1.159172e-11
1.583176e-12
-1.374519e-11
-2.818577e-13
-1.475245e-11
-8.643866e-13
-1.618285e-11
-6.301325e-13
8.652864e-12
-9.49129e-13
-8.69443e-12
9.642316e-12
9.494238e-13
-8.156077e-13
-9.779472e-12
1.074841e-11
5.648747e-13
-1.136182e-13
-1.101618e-11
1.188731e-11
-4.529325e-13
1.56724e-12
-1.220553e-11
3.195166e-12
-1.445149e-11
1.036254e-12
-7.274164e-12
-7.62366e-12
-4.013595e-13
-7.87208e-12
-8.554178e-14
-8.315487e-12
8.7934e-12
-5.987469e-13
-8.714149e-12
9.819275e-12
6.891661e-13
-6.779497e-13
-9.814576e-12
1.217377e-11
1.414901e-12
-4.551028e-14
-1.330814e-11
1.249058e-11
-5.929462e-13
1.776049e-12
-1.276691e-11
2.895662e-12
-1.482097e-11
3.210103e-12
2.011524e-12
-7.069009e-12
-1.262552e-12
6.006904e-13
-7.741302e-12
8.682914e-12
-1.167047e-13
-1.898478e-13
-8.583193e-12
9.81425e-12
3.816902e-13