/*--------------------------------*- C++ -*----------------------------------*\
| =========                 |                                                 |
| \\      /  F ield         | OpenFOAM: The Open Source CFD Toolbox           |
|  \\    /   O peration     | Version:  2206                                  |
|   \\  /    A nd           | Website:  www.openfoam.com                      |
|    \\/     M anipulation  |                                                 |
\*---------------------------------------------------------------------------*/
FoamFile
{
    version     2.0;
    format      ascii;
    arch        "LSB;label=32;scalar=64";
    class       surfaceScalarField;
    location    "1.4";
    object      phi.a;
}
// * * * * * * * * * * * * * * * * * * * * * * * * * * * * * * * * * * * * * //

dimensions      [0 3 -1 0 0 0 0];

oriented        oriented;

internalField   nonuniform List<scalar> 
26037
(
-1.016205e-10
-2.715875e-11
-6.314941e-11
-1.40455e-11
-4.211361e-11
-5.656327e-12
-2.938633e-11
-2.538389e-12
-2.166913e-11
-1.342845e-12
-1.63374e-11
-7.964874e-13
-5.161479e-13
-1.22463e-11
-6.03571e-11
-3.662255e-11
-4.891952e-11
-2.396215e-11
-3.605426e-11
-1.111806e-11
-2.704842e-11
-5.633137e-12
-2.063914e-11
-3.185843e-12
-1.58162e-11
-1.943127e-12
-1.263081e-12
-1.195307e-11
-2.43232e-11
-1.328041e-11
-2.956635e-11
-1.385195e-11
-2.641854e-11
-1.022332e-11
-2.215179e-11
-5.975809e-12
-1.797721e-11
-3.83763e-12
-1.427016e-11
-2.536483e-12
-1.736774e-12
-1.099522e-11
-1.203245e-11
-4.350128e-12
-1.771319e-11
-7.155168e-12
-1.892341e-11
-6.964215e-12
-1.707217e-11
-5.448518e-12
-1.477673e-11
-3.629787e-12
-1.22049e-11
-2.623102e-12
-1.915992e-12
-9.616671e-12
-6.965294e-12
-1.695452e-12
-1.112129e-11
-3.745785e-12
-1.30752e-11
-4.450756e-12
-1.317568e-11
-4.024549e-12
-1.173173e-11
-3.375806e-12
-1.005133e-11
-2.39681e-12
-1.873203e-12
-8.070618e-12
-4.544135e-12
-7.748435e-13
-7.425424e-12
-2.045164e-12
-9.231274e-12
-2.798038e-12
-9.793311e-12
-2.846367e-12
-9.401564e-12
-2.616887e-12
-8.057427e-12
-2.272846e-12
-1.703344e-12
-6.542232e-12
-3.267712e-12
-4.062519e-13
-5.271025e-12
-1.170322e-12
-6.790157e-12
-1.70858e-12
-7.346583e-12
-2.047464e-12
-7.229281e-12
-1.972685e-12
-6.502928e-12
-1.830263e-12
-1.634772e-12
-5.132446e-12
-2.533285e-12
-2.373943e-13
-3.947106e-12
-7.026059e-13
-5.043951e-12
-1.098631e-12
-5.588722e-12
-1.430959e-12
-5.551496e-12
-1.465044e-12
-4.986587e-12
-1.445896e-12
-1.368342e-12
-3.977925e-12
-2.078481e-12
-1.508191e-13
-3.098598e-12
-4.382618e-13
-3.916781e-12
-7.217837e-13
-4.326702e-12
-1.005271e-12
-4.266818e-12
-1.08785e-12
-3.752182e-12
-1.137519e-12
-1.13814e-12
-2.832796e-12
-1.778852e-12
-1.027861e-13
-2.525878e-12
-2.823843e-13
-3.129549e-12
-4.845503e-13
-3.399319e-12
-7.171874e-13
-3.275126e-12
-8.164108e-13
-2.751632e-12
-9.026372e-13
-9.539784e-13
-1.856436e-12
-1.570296e-12
-7.467827e-14
-2.120704e-12
-1.870957e-13
-2.557031e-12
-3.327414e-13
-2.700057e-12
-5.228792e-13
-2.497088e-12
-6.253943e-13
-1.933577e-12
-7.310225e-13
-8.15811e-13
-1.025134e-12
-1.418012e-12
-5.771786e-14
-1.820928e-12
-1.270686e-13
-2.124464e-12
-2.343041e-13
-2.156736e-12
-3.92375e-13
-1.872776e-12
-4.94214e-13
-1.254385e-12
-6.109413e-13
-7.194096e-13
-3.110287e-13
-1.300918e-12
-4.729191e-14
-1.588943e-12
-8.842615e-14
-1.784619e-12
-1.699217e-13
-1.720413e-12
-3.054133e-13
-1.358368e-12
-4.072997e-13
-6.78996e-13
-5.319052e-13
-6.592549e-13
3.110142e-13
-1.2068e-12
-4.084085e-14
-1.401352e-12
-6.327707e-14
-1.506694e-12
-1.269695e-13
-1.359098e-12
-2.426405e-13
-9.219786e-13
-3.4847e-13
-1.800167e-13
-4.841874e-13
-6.300543e-13
8.624548e-13
-1.127525e-12
-3.69316e-14
-1.243072e-12
-4.721527e-14
-1.270754e-12
-9.966724e-14
-1.066667e-12
-1.893833e-13
-5.400208e-13
-3.310302e-13
2.642444e-13
-4.652192e-13
-6.285717e-13
1.361328e-12
-1.057728e-12
-3.459609e-14
-1.103534e-12
-3.725285e-14
-1.060139e-12
-8.51425e-14
-7.748697e-13
-1.755601e-13
-1.946374e-13
-3.212605e-13
6.699696e-13
-4.694606e-13
-6.521599e-13
1.822873e-12
-9.934737e-13
-3.326521e-14
-9.752048e-13
-3.115314e-14
-8.669344e-13
-7.719939e-14
-5.167944e-13
-1.70394e-13
1.272426e-13
-3.22868e-13
1.051851e-12
-4.925517e-13
-6.984547e-13
2.260762e-12
-9.320317e-13
-3.259824e-14
-8.524385e-13
-2.783906e-14
-6.818412e-13
-7.488197e-14
-2.694222e-13
-1.746365e-13
4.381501e-13
-3.381547e-13
1.422434e-12
-5.337024e-13
-7.666017e-13
2.687536e-12
-8.709499e-13
-3.231563e-14
-7.304052e-13
-2.621727e-14
-4.975951e-13
-7.64635e-14
-2.284503e-14
-1.85093e-13
7.475275e-13
-3.581112e-13
1.793233e-12
-5.83269e-13
-8.547657e-13
3.115351e-12
-8.080949e-13
-3.199103e-14
-6.048465e-13
-2.532228e-14
-3.079298e-13
-8.097663e-14
2.312031e-13
-2.027158e-13
1.058077e-12
-3.944985e-13
2.176952e-12
-6.434814e-13
-9.661867e-13
3.556856e-12
-7.411125e-13
-3.116773e-14
-4.713416e-13
-2.387395e-14
-1.065093e-13
-8.643889e-14
5.008343e-13
-2.258301e-13
1.377688e-12
-4.481216e-13
2.580406e-12
-7.307583e-13
-1.103406e-12
4.024104e-12
-6.681104e-13
-2.914068e-14
-3.256488e-13
-1.971644e-14
1.131249e-13
-8.920827e-14
7.946209e-13
-2.474097e-13
1.743002e-12
-5.007007e-13
3.021313e-12
-8.250546e-13
-1.261056e-12
4.531595e-12
-5.870759e-13
-2.4827e-14
-1.639321e-13
-9.782411e-15
3.570557e-13
-8.487593e-14
1.12091e-12
-2.631809e-13
2.150386e-12
-5.510447e-13
3.510203e-12
-9.161178e-13
-1.423116e-12
5.094856e-12
-4.961552e-13
-1.664541e-14
1.756133e-14
1.027575e-14
6.308711e-13
-6.697274e-14
1.487663e-12
-2.659557e-13
2.610766e-12
-5.96021e-13
4.073571e-12
-1.045376e-12
-1.553707e-12
5.732277e-12
-3.937761e-13
-2.278168e-15
2.222373e-13
4.70449e-14
9.400706e-13
-2.540867e-14
1.902273e-12
-2.429419e-13
3.12817e-12
-6.185932e-13
4.626585e-12
-1.143048e-12
-1.73164e-12
6.447916e-12
-2.788263e-13
2.149193e-14
4.524578e-13
1.097847e-13
1.288738e-12
5.45903e-14
2.370748e-12
-1.745894e-13
3.716171e-12
-5.948101e-13
5.32504e-12
-1.195825e-12
-1.884531e-12
7.268125e-12
-1.510464e-13
5.887635e-14
7.089812e-13
2.10901e-13
1.67848e-12
1.925941e-13
2.896383e-12
-3.553537e-14
4.378425e-12
-4.962427e-13
6.121119e-12
-1.178534e-12
-1.969593e-12
8.200034e-12
-1.111137e-14
1.150982e-13
9.904267e-13
3.667142e-13
2.107457e-12
4.144267e-13
3.477985e-12
2.08276e-13
5.116045e-12
-2.830781e-13
7.020836e-12
-1.058435e-12
-2.075915e-12
9.321744e-12
1.383513e-13
1.982612e-13
1.291672e-12
5.998384e-13
2.568905e-12
7.541031e-13
4.108017e-12
6.019657e-13
5.921364e-12
9.995375e-14
7.998513e-12
-7.589825e-13
-1.938648e-12
1.031013e-11
2.964422e-13
3.132204e-13
1.605464e-12
9.457845e-13
3.049028e-12
1.254651e-12
4.769752e-12
1.200974e-12
6.776763e-12
7.228366e-13
9.058678e-12
-1.996919e-13
-1.528884e-12
1.157101e-11
4.327647e-13
4.694233e-13
1.907188e-12
1.408546e-12
3.522455e-12
1.965702e-12
5.431694e-12
2.071928e-12
7.646654e-12
1.66675e-12
1.015748e-11
7.124089e-13
-7.766327e-13
1.29389e-11
5.596748e-13
6.806258e-13
2.229908e-12
1.97279e-12
3.9717e-12
3.024234e-12
6.048855e-12
3.321504e-12
8.473675e-12
3.027698e-12
1.122545e-11
2.089596e-12
4.823239e-13
1.426475e-11
6.494162e-13
9.541967e-13
2.35166e-12
2.749609e-12
4.471969e-12
4.138055e-12
6.574518e-12
5.240639e-12
9.177349e-12
4.930124e-12
1.216922e-11
4.05627e-12
2.383942e-12
1.550208e-11
6.845659e-13
1.299779e-12
2.428142e-12
3.752415e-12
4.427536e-12
5.716555e-12
6.878673e-12
7.435629e-12
9.644037e-12
7.46761e-12
1.285102e-11
6.742418e-12
5.084517e-12
1.647548e-11
6.414731e-13
1.720643e-12
2.366533e-12
4.982231e-12
4.38227e-12
7.673868e-12
7.382831e-12
9.651695e-12
9.831082e-12
1.131356e-11
1.309425e-11
1.04001e-11
8.738171e-12
1.696063e-11
4.96414e-13
2.211901e-12
2.103245e-12
6.426684e-12
4.003001e-12
1.00085e-11
6.422344e-12
1.269658e-11
1.022769e-11
1.442406e-11
1.274383e-11
1.603444e-11
1.353585e-11
1.667101e-11
2.274492e-13
2.757256e-12
1.593585e-12
8.041297e-12
3.27083e-12
1.264092e-11
5.369218e-12
1.625407e-11
8.036174e-12
1.873606e-11
1.140533e-11
2.143227e-11
1.94285e-11
1.525442e-11
-1.834603e-13
3.323967e-12
8.002227e-13
9.73334e-12
2.106318e-12
1.541931e-11
3.807844e-12
2.004095e-11
6.049795e-12
2.336382e-11
1.067923e-11
2.551493e-11
2.814636e-11
1.247117e-11
-7.432325e-13
3.851752e-12
-3.083827e-13
1.136115e-11
4.602136e-13
1.810555e-11
1.578214e-12
2.372877e-11
3.032285e-12
2.797757e-11
5.077784e-12
3.088828e-11
3.493914e-11
7.767234e-12
-1.427585e-12
4.2463e-12
-1.727765e-12
1.278781e-11
-1.698524e-12
2.04425e-11
-1.333771e-12
2.6933e-11
-7.432178e-13
3.201622e-11
2.521612e-13
3.552927e-11
3.782754e-11
4.226885e-12
-2.432398e-12
4.511809e-12
-3.313636e-12
1.348932e-11
-4.293589e-12
2.236677e-11
-4.898953e-12
2.940677e-11
-5.348072e-12
3.500452e-11
-5.849697e-12
3.877945e-11
4.346803e-11
8.555894e-12
-3.597233e-12
4.595056e-12
-5.753071e-12
1.387836e-11
-6.923872e-12
2.274801e-11
-8.959671e-12
3.121098e-11
-1.090384e-11
3.645799e-11
1.878635e-11
4.582752e-11
8.029425e-11
1.722662e-10
-4.90461e-12
4.459816e-12
-8.196409e-12
1.380265e-11
-1.093413e-11
2.270262e-11
-1.324378e-11
3.008318e-11
1.573301e-11
4.42615e-11
2.079997e-10
8.534751e-11
1.710249e-10
6.223561e-10
-6.220681e-12
4.104734e-12
-1.073037e-11
1.309546e-11
-1.505251e-11
2.138024e-11
5.187598e-12
3.189745e-11
2.006403e-10
6.927673e-11
6.475733e-10
2.108686e-10
2.75146e-10
1.245604e-09
-7.516906e-12
3.536022e-12
-1.36957e-11
1.136494e-11
-8.561747e-12
2.012641e-11
1.520272e-10
5.292501e-11
5.888897e-10
1.310448e-10
1.311916e-09
2.320286e-10
4.315516e-10
1.789154e-09
-8.953168e-12
2.670387e-12
-1.800636e-11
8.53348e-12
7.26765e-11
2.670538e-11
4.844445e-10
1.152391e-10
1.105308e-09
2.084213e-10
1.732159e-09
2.28697e-10
2.427964e-10
2.516307e-09
-1.102856e-11
1.49596e-12
1.656219e-11
1.110788e-11
2.944456e-10
5.279329e-11
9.358319e-10
1.416376e-10
1.567991e-09
3.069393e-10
2.201014e-09
2.178904e-10
3.061157e-10
2.965984e-09
-1.071406e-11
6.709329e-13
1.4586e-10
2.377801e-11
6.299962e-10
9.447468e-11
1.277583e-09
1.776137e-10
2.081421e-09
1.843895e-10
2.951485e-09
1.920797e-10
7.014951e-10
3.819401e-09
2.313104e-11
5.504369e-12
3.565658e-10
4.736049e-11
9.692896e-10
1.375902e-10
1.636958e-09
1.997218e-10
2.375638e-09
2.048885e-10
3.369264e-09
2.755416e-10
4.865247e-10
5.076891e-09
1.08071e-10
1.424239e-11
5.807887e-10
7.461478e-11
1.241125e-09
1.749155e-10
1.957697e-09
2.221181e-10
2.866626e-09
2.763585e-10
4.052898e-09
4.058311e-10
5.763165e-10
5.450442e-09
2.571259e-10
2.50611e-11
8.53795e-10
9.595054e-11
1.446181e-09
2.653063e-10
2.244704e-09
2.678255e-10
3.345942e-09
3.689409e-10
4.710389e-09
5.446781e-10
7.808311e-10
6.103339e-09
4.275533e-10
3.706925e-11
1.063664e-09
1.207098e-10
1.863059e-09
2.085612e-10
2.899283e-09
3.195832e-10
4.364903e-09
4.200472e-10
6.115534e-09
6.1547e-10
1.575768e-09
7.226824e-09
5.777955e-10
4.774413e-11
1.253645e-09
1.464093e-10
2.033949e-09
2.404648e-10
3.094006e-09
3.546848e-10
4.472514e-09
5.116392e-10
6.073845e-09
7.102709e-10
1.165412e-09
8.354117e-09
6.782484e-10
5.396973e-11
1.37854e-09
1.623882e-10
2.196699e-09
2.71412e-10
3.299698e-09
4.100686e-10
4.721219e-09
5.96013e-10
6.305096e-09
8.079303e-10
1.042165e-09
8.12913e-09
7.51675e-10
5.732981e-11
1.475243e-09
1.716498e-10
2.349786e-09
2.930634e-10
3.553636e-09
4.491995e-10
5.095783e-09
6.485334e-10
6.783894e-09
8.727001e-10
1.096244e-09
8.449714e-09
8.298615e-10
5.229888e-11
1.601302e-09
1.598941e-10
2.56147e-09
2.844398e-10
3.907149e-09
4.416843e-10
5.641511e-09
6.32071e-10
7.555467e-09
8.480641e-10
1.079965e-09
9.425167e-09
8.303079e-10
4.0246e-11
1.600441e-09
1.322355e-10
2.554682e-09
2.569412e-10
3.889898e-09
4.130079e-10
5.611253e-09
5.928317e-10
7.511929e-09
7.995738e-10
1.037766e-09
9.37144e-09
7.541362e-10
3.455772e-11
1.478192e-09
1.212136e-10
2.343777e-09
2.546462e-10
3.529727e-09
4.240131e-10
5.050635e-09
6.123267e-10
6.717776e-09
8.263868e-10
1.048857e-09
8.367896e-09
6.828895e-10
3.114967e-11
1.388396e-09
1.143881e-10
2.199216e-09
2.561747e-10
3.279944e-09
4.418655e-10
4.672691e-09
6.482622e-10
6.222098e-09
8.647968e-10
8.722331e-10
7.990424e-09
5.835086e-10
2.514427e-11
1.27094e-09
9.799614e-11
2.048409e-09
2.290221e-10
3.077398e-09
4.016346e-10
4.411298e-09
6.43237e-10
5.95521e-09
8.439855e-10
3.935396e-10
8.10097e-09
4.328307e-10
1.624547e-11
1.087072e-09
6.740029e-11
1.88381e-09
8.885716e-11
2.877448e-09
3.345317e-10
4.269212e-09
5.665016e-10
5.935704e-09
7.80892e-10
9.741511e-10
7.031927e-09
2.604594e-10
6.043347e-12
8.743519e-10
3.305175e-11
1.498771e-09
1.031014e-10
2.293447e-09
2.897387e-10
3.350039e-09
5.429765e-10
4.655176e-09
7.803187e-10
1.012449e-09
5.988129e-09
1.103372e-10
2.120785e-12
5.968832e-10
1.830565e-11
1.298947e-09
6.735878e-11
2.040568e-09
2.044884e-10
2.914442e-09
4.668901e-10
4.027856e-09
7.377631e-10
9.234559e-10
5.315186e-09
2.441284e-11
-9.056277e-13
3.639461e-10
5.279419e-12
1.011941e-09
3.451819e-11
1.736898e-09
1.155845e-10
2.476248e-09
3.219102e-10
3.39696e-09
6.187751e-10
5.61867e-10
4.920486e-09
-1.004649e-11
-2.238807e-12
1.48389e-10
-4.487033e-12
6.467812e-10
8.555099e-12
1.358718e-09
4.527437e-11
2.213958e-09
6.483282e-11
3.04295e-09
4.054226e-10
6.913279e-10
3.859507e-09
-1.045588e-11
-3.136329e-12
1.798025e-11
-1.016865e-11
2.974243e-10
-1.00513e-11
9.61173e-10
-1.182979e-11
1.689078e-09
4.547038e-11
2.387965e-09
2.069554e-10
4.848987e-10
3.137633e-09
-8.535864e-12
-3.736928e-12
-1.672676e-11
-1.219448e-11
7.460527e-11
-1.895465e-11
4.878835e-10
-1.596253e-11
1.151327e-09
7.25769e-12
1.87619e-09
5.731039e-11
1.095043e-10
2.692426e-09
-7.173275e-12
-4.083367e-12
-1.270853e-11
-1.319623e-11
-6.504365e-12
-2.176262e-11
1.550803e-10
-2.674313e-11
5.902564e-10
-2.13979e-11
1.334816e-09
-3.207361e-11
4.607279e-11
1.98878e-09
-5.872277e-12
-4.268717e-12
-9.808148e-12
-1.337747e-11
-1.319048e-11
-2.217399e-11
8.223204e-12
-2.956323e-11
1.999908e-10
-3.468826e-11
6.52225e-10
-2.680871e-11
-1.69067e-11
1.318427e-09
-4.499782e-12
-4.288893e-12
-7.215391e-12
-1.31005e-11
-9.112573e-12
-2.159288e-11
-1.037468e-11
-2.953706e-11
2.114957e-11
-3.479077e-11
2.073382e-10
-3.659008e-11
-3.349914e-11
6.163544e-10
-3.126842e-12
-4.136285e-12
-4.694048e-12
-1.248163e-11
-5.224204e-12
-2.066999e-11
-6.017162e-12
-2.737342e-11
-6.466912e-12
-3.281629e-11
2.228532e-11
-3.701314e-11
-3.808084e-11
1.794878e-10
-1.916659e-12
-3.828535e-12
-2.273745e-12
-1.158605e-11
-2.416599e-12
-1.864361e-11
-2.001174e-12
-2.472888e-11
-8.988085e-13
-2.985537e-11
-3.694227e-13
-3.295437e-11
-3.534813e-11
1.539585e-11
-9.10387e-13
-3.404994e-12
-5.95315e-13
-1.01417e-11
1.679311e-13
-1.626871e-11
1.653988e-12
-2.16625e-11
3.00305e-12
-2.538067e-11
5.065208e-12
-2.801872e-11
-3.206094e-11
1.046132e-11
-2.133832e-13
-2.880587e-12
7.913276e-13
-8.530969e-12
2.212246e-12
-1.361939e-11
4.075148e-12
-1.796596e-11
6.332362e-12
-2.072225e-11
9.257649e-12
-2.255392e-11
-2.499358e-11
1.291224e-11
3.116603e-13
-2.332732e-12
1.822473e-12
-6.90325e-12
3.826704e-12
-1.100841e-11
6.031316e-12
-1.408279e-11
8.959617e-12
-1.618842e-11
1.420528e-11
-1.843137e-11
-1.626629e-11
1.663749e-11
6.737961e-13
-1.815541e-12
2.552883e-12
-5.39726e-12
4.684585e-12
-8.415144e-12
7.306966e-12
-1.064978e-11
1.105817e-11
-1.24132e-11
1.437382e-11
-1.260492e-11
-1.048962e-11
1.855559e-11
8.847297e-13
-1.358839e-12
2.893154e-12
-4.036128e-12
5.196553e-12
-6.203453e-12
7.997928e-12
-7.74067e-12
1.174932e-11
-9.027193e-12
1.504883e-11
-7.802413e-12
-5.994091e-12
1.925544e-11
9.800606e-13
-9.761406e-13
3.034518e-12
-2.883804e-12
5.379642e-12
-4.382452e-12
8.67146e-12
-5.673051e-12
1.143087e-11
-5.414734e-12
1.49618e-11
-4.453157e-12
-2.63022e-12
1.897807e-11
9.620366e-13
-6.65172e-13
2.981482e-12
-1.973534e-12
5.250229e-12
-2.946338e-12
7.964387e-12
-3.670636e-12
1.095561e-11
-3.111711e-12
1.433278e-11
-2.036261e-12
-2.264352e-13
1.8047e-11
8.783949e-13
-4.254147e-13
2.805674e-12
-1.285755e-12
5.127324e-12
-1.957754e-12
7.454414e-12
-1.966853e-12
1.022938e-11
-1.443546e-12
1.334236e-11
-3.336334e-13
1.383986e-12
1.672738e-11
7.476449e-13
-2.460008e-13
2.594781e-12
-8.010474e-13
4.522889e-12
-1.047412e-12
6.762358e-12
-9.032491e-13
9.317272e-12
-3.024174e-13
1.215619e-11
7.935356e-13
2.368702e-12
1.52229e-11
5.871406e-13
-1.18896e-13
2.215082e-12
-4.209544e-13
3.974419e-12
-4.667526e-13
6.010276e-12
-2.021239e-13
8.325984e-12
4.38598e-13
1.089996e-11
1.475896e-12
2.873681e-12
1.368805e-11
4.221384e-13
-2.96791e-14
1.858625e-12
-1.541602e-13
3.419409e-12
-8.560665e-14
5.241965e-12
2.428253e-13
7.328488e-12
8.783436e-13
9.657893e-12
1.828976e-12
3.060534e-12
1.217261e-11
2.446801e-13
2.846213e-14
1.501853e-12
9.864007e-15
2.875132e-12
1.477583e-13
4.497527e-12
4.991071e-13
6.375325e-12
1.098767e-12
8.490401e-12
1.946856e-12
3.0057e-12
1.080117e-11
7.800131e-14
6.19919e-14
1.166433e-12
1.039888e-13
2.363668e-12
2.754797e-13
3.803714e-12
6.220153e-13
5.495788e-12
1.169502e-12
7.431755e-12
1.91025e-12
2.755087e-12
9.709344e-12
-7.522468e-14
7.926386e-14
8.584681e-13
1.51064e-13
1.89595e-12
3.310868e-13
3.172877e-12
6.555762e-13
4.701567e-12
1.144533e-12
6.474083e-12
1.79097e-12
2.521251e-12
8.560159e-12
-2.134777e-13
8.539055e-14
5.813214e-13
1.665959e-13
1.476245e-12
3.3946e-13
2.609348e-12
6.323728e-13
3.995806e-12
1.061767e-12
5.632135e-12
1.620957e-12
2.239466e-12
7.585488e-12
-3.365411e-13
8.426277e-14
3.350521e-13
1.621388e-13
1.104332e-12
3.18885e-13
2.111738e-12
5.764335e-13
3.374424e-12
9.477345e-13
4.897561e-12
1.423682e-12
1.951377e-12
6.730317e-12
-4.45115e-13
7.891455e-14
1.180445e-13
1.464048e-13
7.772382e-13
2.830568e-13
1.67491e-12
5.060319e-13
2.83128e-12
8.248708e-13
4.310747e-12
1.214202e-12
1.721515e-12
5.987211e-12
-5.408244e-13
7.15327e-14
-7.268973e-14
1.255327e-13
4.90193e-13
2.412699e-13
1.29157e-12
4.324416e-13
2.352352e-12
7.078078e-13
3.735029e-12
1.048233e-12
1.482969e-12
5.330651e-12
-6.252657e-13
6.346351e-14
-2.410023e-13
1.031675e-13
2.369043e-13
1.989926e-13
9.536119e-13
3.612722e-13
1.931588e-12
5.981298e-13
3.232313e-12
8.89403e-13
1.260453e-12
4.753689e-12
-7.005566e-13
5.550764e-14
-3.908638e-13
8.168636e-14
1.153239e-14
1.594112e-13
6.526046e-13
2.952651e-13
1.557922e-12
4.950795e-13
2.782702e-12
7.464432e-13
1.067468e-12
4.238329e-12
-7.685474e-13
4.821181e-14
-5.262099e-13
6.265794e-14
-1.924255e-13
1.251074e-13
3.799515e-13
2.400172e-13
1.236157e-12
4.139087e-13
2.376262e-12
6.388585e-13
9.076962e-13
3.76907e-12
-8.313525e-13
4.185442e-14
-6.514929e-13
4.677358e-14
-3.814682e-13
9.720107e-14
1.270332e-13
1.962632e-13
9.27236e-13
3.543823e-13
1.995377e-12
5.478094e-13
7.772047e-13
3.331795e-12
-8.911805e-13
3.656692e-14
-7.709877e-13
3.433074e-14
-5.617885e-13
7.574015e-14
-1.139785e-13
1.621057e-13
6.2512e-13
3.035947e-13
1.633647e-12
4.695748e-13
6.71537e-13
2.914966e-12
-9.500045e-13
3.243353e-14
-8.884468e-13
2.580325e-14
-7.387863e-13
6.154462e-14
-3.50479e-13
1.394615e-13
3.277481e-13
2.690787e-13
1.279079e-12
4.124798e-13
5.911263e-13
2.506478e-12
-1.00979e-12
2.965626e-14
-1.007799e-12
2.161084e-14
-9.185431e-13
5.448694e-14
-5.907606e-13
1.256484e-13
2.698139e-14
2.469179e-13
9.212032e-13
3.754937e-13
5.350925e-13
2.094837e-12
-1.072715e-12
2.844843e-14
-1.133547e-12
2.299083e-14
-1.108507e-12
5.897461e-14
-8.515547e-13
1.454442e-13
-2.87331e-13
2.356891e-13
5.491238e-13
3.613249e-13
5.040887e-13
1.668791e-12
-1.141711e-12
2.923031e-14
-1.271289e-12
3.147339e-14
-1.314599e-12
7.604871e-14
-1.109796e-12
1.742238e-13
-6.264402e-13
2.586403e-13
1.507453e-13
3.727059e-13
4.991585e-13
1.216765e-12
-1.220398e-12
3.279355e-14
-1.428345e-12
4.948491e-14
-1.548746e-12
1.084849e-13
-1.417495e-12
2.203167e-13
-1.003038e-12
3.029539e-13
-2.864297e-13
4.103814e-13
5.220594e-13
7.262103e-13
-1.314175e-12
4.061195e-14
-1.614574e-12
8.185499e-14
-1.824234e-12
1.643519e-13
-1.776809e-12
2.977741e-13
-1.434728e-12
3.811923e-13
-7.792506e-13
4.816121e-13
5.76755e-13
1.824485e-13
-1.430441e-12
5.529742e-14
-1.844937e-12
1.3633e-13
-2.16153e-12
2.550856e-13
-2.209588e-12
4.193456e-13
-1.944454e-12
5.039017e-13
-1.348562e-12
5.942866e-13
6.680002e-13
-4.32033e-13
-1.581988e-12
8.134544e-14
-2.142921e-12
2.26156e-13
-2.591211e-12
3.992023e-13
-2.748916e-12
6.041848e-13
-2.563533e-12
6.858565e-13
-2.021182e-12
7.582672e-13
8.00671e-13
-1.1381e-12
-1.789367e-12
1.271883e-13
-2.545841e-12
3.759111e-13
-3.160249e-12
6.280138e-13
-3.443188e-12
8.813353e-13
-3.335227e-12
9.470968e-13
-2.831441e-12
9.845402e-13
9.784221e-13
-1.960159e-12
-2.08774e-12
2.110795e-13
-3.115875e-12
6.323104e-13
-3.94626e-12
9.952398e-13
-4.364065e-12
1.287581e-12
-4.318599e-12
1.311381e-12
-3.822494e-12
1.282553e-12
1.200414e-12
-2.922137e-12
-2.540401e-12
3.769376e-13
-3.963352e-12
1.093737e-12
-5.127258e-12
1.657356e-12
-5.622817e-12
1.826785e-12
-5.593239e-12
1.799341e-12
-5.041098e-12
1.654037e-12
1.293878e-12
-3.911388e-12
-3.271206e-12
7.419559e-13
-5.274937e-12
1.954483e-12
-6.729371e-12
2.664932e-12
-7.360763e-12
2.671757e-12
-7.252476e-12
2.430769e-12
-6.316053e-12
1.828802e-12
1.503608e-12
-5.1314e-12
-4.540214e-12
1.657785e-12
-7.417218e-12
3.635326e-12
-9.217219e-12
4.2773e-12
-9.783878e-12
3.823151e-12
-9.080931e-12
2.803133e-12
-8.00563e-12
2.171048e-12
1.664162e-12
-6.511823e-12
-6.944285e-12
4.306397e-12
-1.108924e-11
7.013893e-12
-1.302793e-11
6.742568e-12
-1.268678e-11
4.691362e-12
-1.161571e-11
3.364239e-12
-9.960928e-12
2.383253e-12
1.699549e-12
-8.014906e-12
-1.196734e-11
1.324072e-11
-1.76056e-11
1.366615e-11
-1.81859e-11
9.144733e-12
-1.68539e-11
5.636384e-12
-1.46052e-11
3.554702e-12
-1.208671e-11
2.289879e-12
1.517576e-12
-9.539137e-12
-2.405996e-11
3.687785e-11
-2.852627e-11
2.268067e-11
-2.599249e-11
1.052303e-11
-2.184291e-11
5.284215e-12
-1.777631e-11
2.901573e-12
-1.413635e-11
1.696289e-12
1.045236e-12
-1.090526e-11
-5.803399e-11
-4.784259e-11
-3.547175e-11
-2.671708e-11
-2.044722e-11
-1.569318e-11
-1.186681e-11
-8.921943e-12
-3.566245e-13
-6.270509e-12
-2.57285e-13
-2.16486e-12
-1.862538e-13
-2.168259e-12
-1.823781e-12
-1.978392e-14
1.583577e-12
-1.428082e-12
-2.359226e-14
1.354742e-12
-1.349262e-12
-1.773828e-14
1.407763e-12
-1.632733e-12
-1.96e-14
-8.741015e-12
-8.680045e-13
-6.14749e-12
-6.257798e-13
-2.13384e-12
-4.665191e-13
-2.097208e-12
7.604288e-14
-1.802443e-12
-1.215356e-13
7.894139e-14
1.560559e-12
-1.400898e-12
-1.354774e-13
6.168483e-14
1.324977e-12
-1.317036e-12
-1.047259e-13
6.148137e-14
1.371732e-12
-1.589352e-12
-1.009984e-13
-8.108464e-12
-1.235945e-12
-5.702654e-12
-9.169212e-13
-3.930841e-12
-7.110865e-13
-1.434678e-12
-3.17884e-13
2.005038e-13
1.726074e-13
-1.371993e-12
-2.539366e-13
1.865164e-13
-1.282659e-12
-2.301915e-13
1.459209e-13
1.204201e-12
-1.19295e-12
-1.848804e-13
1.389479e-13
1.242165e-12
-1.449818e-12
-1.757012e-13
-7.144327e-12
-1.430969e-12
-4.981609e-12
-1.103147e-12
-1.705309e-12
-8.816842e-13
-1.607832e-12
-1.429417e-12
-3.626907e-13
2.697268e-13
1.213725e-12
-1.06599e-12
-3.093839e-13
2.218191e-13
9.94476e-13
-9.834837e-13
-2.57113e-13
2.110623e-13
1.028151e-12
-1.226394e-12
-2.450131e-13
-6.002476e-12
-1.47747e-12
-4.098792e-12
-1.190491e-12
-1.361921e-12
-9.829947e-13
-1.241115e-12
3.849467e-13
-1.117921e-12
-4.118807e-13
3.500296e-13
9.162443e-13
-7.780695e-13
-3.854102e-13
2.90774e-13
7.133372e-13
-7.031666e-13
-3.223238e-13
2.775213e-13
7.439942e-13
-9.355174e-13
-3.084688e-13
-4.809856e-12
-1.422357e-12
-3.137807e-12
-1.20413e-12
-9.649069e-13
-1.037087e-12
-8.320351e-13
4.357007e-13
-7.499486e-13
-4.557773e-13
4.153288e-13
-4.392487e-13
-4.402409e-13
5.663003e-13
3.51477e-13
3.797952e-13
-3.693738e-13
-3.782909e-13
3.375498e-13
4.060515e-13
-5.913353e-13
-3.647174e-13
-3.652544e-12
-1.313511e-12
-2.162438e-12
-1.171062e-12
-5.425663e-13
-1.055927e-12
-4.049372e-13
-3.483469e-13
-4.871808e-13
4.72364e-13
4.613815e-13
1.442607e-13
-6.39454e-14
-4.506425e-13
4.03e-13
8.758014e-15
2.983221e-15
-4.255559e-13
3.901103e-13
2.933379e-14
-2.087484e-13
-4.13835e-13
-2.575346e-12
-1.260817e-12
-1.216446e-12
-1.116379e-12
-1.148855e-13
-1.054599e-12
2.288358e-14
4.961774e-13
6.029358e-14
-5.034957e-13
4.641865e-13
3.293981e-13
-4.796349e-13
-2.278035e-13
4.462425e-13
-3.854478e-13
4.00063e-13
-4.656556e-13
4.361095e-13
-3.729369e-13
1.993727e-13
-4.572522e-13
-1.615556e-12
-1.106244e-12
-3.217945e-13
-1.0588e-12
3.046901e-13
-1.048704e-12
4.390213e-13
4.712216e-13
-5.148698e-13
5.095194e-13
4.940293e-13
-6.330782e-13
7.32955e-13
-5.077832e-13
4.843401e-13
-7.908183e-13
8.09836e-13
-5.026843e-13
4.77651e-13
-7.889323e-13
6.213813e-13
-4.976462e-13
-6.803954e-13
-9.773309e-13
5.606193e-13
-9.834723e-13
7.085391e-13
-9.834289e-13
8.37152e-13
5.202772e-13
8.720178e-13
-5.261334e-13
5.214401e-13
-1.033462e-12
1.135232e-12
-5.355895e-13
5.21132e-13
-1.197499e-12
1.22272e-12
-5.401249e-13
5.177246e-13
-1.209189e-12
1.047863e-12
-5.383238e-13
1.49422e-13
-8.802016e-13
1.381134e-12
-9.291909e-13
1.138774e-12
-9.706472e-13
1.272403e-12
5.329977e-13
1.257273e-12
-4.936269e-13
5.506781e-13
-1.422484e-12
1.529264e-12
-5.671596e-13
5.602347e-13
-1.598072e-12
1.631262e-12
-5.820425e-13
5.602607e-13
-1.626415e-12
1.472049e-12
-5.841551e-13
8.856573e-13
-8.156542e-13
2.133483e-12
-9.002473e-13
1.52537e-12
-9.776658e-13
1.652742e-12
4.975079e-13
1.693793e-12
-5.038763e-13
5.853997e-13
-1.865034e-12
1.909264e-12
-5.342665e-13
6.059128e-13
-1.987444e-12
2.030091e-12
-6.322035e-13
6.107698e-13
-2.035303e-12
1.889366e-12
-6.403659e-13
1.544159e-12
-7.821817e-13
2.822622e-12
-8.977747e-13
1.887575e-12
-1.007642e-12
2.007987e-12
5.126351e-13
2.06537e-12
-5.243943e-13
5.507511e-13
-2.245344e-12
2.365113e-12
-5.70177e-13
6.612043e-13
-2.448262e-12
2.414018e-12
-6.049296e-13
6.734864e-13
-2.430908e-12
2.294607e-12
-7.104805e-13
2.140193e-12
-7.775505e-13
3.458118e-12
-9.217742e-13
2.226594e-12
-1.061643e-12
2.340728e-12
5.386237e-13
2.415183e-12
-5.559327e-13
5.919118e-13
-2.606248e-12
2.736169e-12
-6.163265e-13
6.329524e-13
-2.829439e-12
2.88911e-12
-6.630164e-13
7.490169e-13
-2.910405e-12
2.666034e-12
-6.900864e-13
2.688054e-12
-8.001413e-13
4.050467e-12
-9.72047e-13
2.545695e-12
-1.141162e-12
2.654828e-12
5.759367e-13
2.745574e-12
-5.992182e-13
6.429187e-13
-2.948378e-12
3.088626e-12
-6.726344e-13
6.941348e-13
-3.192592e-12
3.264358e-12
-7.273557e-13
7.222739e-13
-3.29944e-12
3.172913e-12
-7.540751e-13
3.200739e-12
-8.487756e-13
4.610333e-12
-1.049275e-12
2.848865e-12
-1.247973e-12
2.954376e-12
6.255134e-13
3.060179e-12
-6.557426e-13
7.054338e-13
-3.274812e-12
3.424611e-12
-7.421887e-13
7.636005e-13
-3.537535e-12
3.616817e-12
-8.041177e-13
7.914547e-13
-3.655817e-12
3.529602e-12
-8.33441e-13
3.690758e-12
-9.231891e-13
5.148445e-12
-1.154832e-12
3.140742e-12
-1.386141e-12
3.244695e-12
6.891086e-13
3.363016e-12
-7.260293e-13
7.8301e-13
-3.590118e-12
3.74871e-12
-8.220131e-13
8.487027e-13
-3.869335e-12
3.95522e-12
-8.979828e-13
8.804952e-13
-3.997819e-12
3.87188e-12
-9.32378e-13
4.169914e-12
-1.023677e-12
5.676067e-12
-1.290673e-12
3.426702e-12
-1.558217e-12
3.530032e-12
7.729273e-13
3.659987e-12
-8.214286e-13
7.940704e-13
-3.880442e-12
4.065081e-12
-8.455847e-13
9.520124e-13
-4.19287e-12
4.285112e-12
-1.011967e-12
9.888635e-13
-4.331003e-12
4.20373e-12
-1.051001e-12
4.650798e-12
-1.151118e-12
6.205271e-12
-1.458675e-12
3.711585e-12
-1.766738e-12
3.816962e-12
8.728825e-13
3.954049e-12
-9.295558e-13
9.043572e-13
-4.178242e-12
4.379509e-12
-9.694961e-13
1.077024e-12
-4.514611e-12
4.612817e-12
-1.147775e-12
1.118075e-12
-4.662202e-12
4.533563e-12
-1.1912e-12
5.146192e-12
-1.307836e-12
6.749514e-12
-1.661852e-12
4.002731e-12
-2.016077e-12
4.112382e-12
9.911082e-13
4.253737e-12
-1.058692e-12
1.041302e-12
-4.487443e-12
4.698805e-12
-1.120251e-12
1.224425e-12
-4.841149e-12
4.945517e-12
-1.307843e-12
1.270139e-12
-4.998081e-12
4.867869e-12
-1.35611e-12
5.670131e-12
-1.495554e-12
7.323741e-12
-1.903294e-12
4.307463e-12
-2.310138e-12
4.424241e-12
1.131844e-12
4.566315e-12
-1.211856e-12
1.206849e-12
-4.808721e-12
5.030354e-12
-1.301825e-12
1.397998e-12
-5.179791e-12
5.290373e-12
-1.496057e-12
1.448956e-12
-5.346061e-12
5.213015e-12
-1.549946e-12
6.238363e-12
-1.714646e-12
7.944706e-12
-2.186006e-12
4.634524e-12
-2.651449e-12
4.762222e-12
1.297992e-12
4.90036e-12
-1.391315e-12
1.405347e-12
-5.151433e-12
5.382932e-12
-1.518959e-12
1.601652e-12
-5.539101e-12
5.655441e-12
-1.716191e-12
1.658777e-12
-5.714135e-12
5.578706e-12
-1.776295e-12
6.867386e-12
-1.962885e-12
8.630214e-12
-2.515775e-12
4.995045e-12
-3.058971e-12
5.142255e-12
1.490029e-12
5.267692e-12
-1.588507e-12
1.642754e-12
-5.52669e-12
5.764764e-12
-1.77291e-12
1.839392e-12
-5.928973e-12
6.050558e-12
-1.971721e-12
1.902776e-12
-6.111471e-12
5.973429e-12
-2.039332e-12
7.576123e-12
-2.240196e-12
9.403377e-12
-2.894736e-12
1.095312e-11
-3.541673e-12
5.983925e-12
-2.030126e-12
1.838082e-12
1.727869e-12
6.146336e-12
-2.094306e-12
1.924499e-12
6.196203e-12
-2.08904e-12
2.115784e-12
-6.359495e-12
6.485818e-12
-2.272743e-12
2.185513e-12
-6.548375e-12
6.407055e-12
-2.343594e-12
8.380686e-12
-2.543508e-12
1.027944e-11
-3.315194e-12
5.859664e-12
-4.078557e-12
6.034815e-12
6.146325e-12
-2.156738e-12
2.242801e-12
-6.419623e-12
6.643207e-12
-2.409531e-12
2.439391e-12
-6.844945e-12
6.972137e-12
-2.618132e-12
2.512426e-12
-7.035515e-12
6.889644e-12
-2.693252e-12
9.299776e-12
-2.851305e-12
1.12828e-11
-3.767639e-12
6.372616e-12
-4.669324e-12
6.580587e-12
2.301183e-12
6.662121e-12
-2.466471e-12
2.592135e-12
-6.949246e-12
7.183955e-12
-2.786077e-12
2.809385e-12
-7.391934e-12
7.520218e-12
-3.013633e-12
2.884748e-12
-7.581237e-12
7.429136e-12
-3.086006e-12
1.034834e-11
-3.117077e-12
1.243283e-11
-4.239313e-12
6.971819e-12
-5.318288e-12
7.21305e-12
2.642743e-12
7.268591e-12
-2.830807e-12
2.989734e-12
-7.566349e-12
7.807146e-12
-3.204865e-12
3.230149e-12
-8.011187e-12
8.144089e-12
-3.464165e-12
3.297223e-12
-8.194924e-12
8.017262e-12
-3.523035e-12
1.154095e-11
-3.189272e-12
1.374072e-11
-2.254849e-12
-2.470003e-12
7.663147e-12
-2.909328e-12
7.941537e-12
-3.101616e-12
3.026758e-12
7.971692e-12
-3.232143e-12
3.430878e-12
-8.282068e-12
8.531625e-12
-3.668195e-12
3.752768e-12
-8.689385e-12
8.867511e-12
-4.062369e-12
3.765791e-12
-8.917579e-12
8.698724e-12
-4.024118e-12
6.307807e-12
-3.237284e-12
6.579361e-12
6.859877e-12
-2.306525e-12