/*--------------------------------*- C++ -*----------------------------------*\
| =========                 |                                                 |
| \\      /  F ield         | OpenFOAM: The Open Source CFD Toolbox           |
|  \\    /   O peration     | Version:  2206                                  |
|   \\  /    A nd           | Website:  www.openfoam.com                      |
|    \\/     M anipulation  |                                                 |
\*---------------------------------------------------------------------------*/
FoamFile
{
    version     2.0;
    format      ascii;
    arch        "LSB;label=32;scalar=64";
    class       volScalarField;
    location    "1.4";
    object      pS;
}
// * * * * * * * * * * * * * * * * * * * * * * * * * * * * * * * * * * * * * //

dimensions      [1 -1 -2 0 0 0 0];

internalField   nonuniform List<scalar> 
13078
(
0.001737247
131.7048
706.0124
702.8954
646.9539
585.9327
522.7141
179.7038
731.0583
772.5446
711.1703
649.8917
587.7064
524.1458
881.7323
855.8713
785.4443
718.4004
654.1851
590.3196
526.0243
947.8387
864.5089
791.7704
724.2459
658.1896
593.0319
528.0531
949.3575
867.3987
795.5529
727.2666
661.4028
595.5659
530.0383
945.7521
867.3457
797.1319
729.0903
662.9107
597.6796
531.9145
942.4102
866.3769
797.7925
730.2869
663.9253
598.5369
533.541
940.0865
865.2787
798.0348
730.8909
664.497
599.1128
534.0871
938.4737
864.3378
797.7867
731.0201
664.7949
599.4917
534.4751
937.3401
863.6014
797.4809
731.0173
664.9526
599.7434
534.7608
936.5217
863.0335
797.2059
730.9594
665.0369
599.9229
534.9941
935.8822
862.6217
796.979
730.888
665.0856
600.0634
535.1861
935.3983
862.2899
796.7931
730.8315
665.12
600.1797
535.3579
935.0026
862.0325
796.6531
730.8075
665.1826
600.2927
535.5233
934.6838
861.8302
796.5692
731.1671
665.7235
600.4516
535.6847
934.4139
861.6734
796.5288
731.632
666.1396
600.5975
535.8571
934.1716
861.525
796.4721
731.6939
666.2493
600.7341
536.0367
933.9446
861.4068
796.4339
731.7466
666.36
600.8805
536.2266
933.7285
861.2995
796.4159
731.8085
666.499
601.0775
536.4236
933.5153
861.2127
796.4211
731.9313
667.155
601.928
536.6967
933.3064
861.1169
796.4307
732.0711
667.9312
602.6049
536.9794
933.0714
861.0221
796.4304
732.1635
668.1791
602.8749
537.238
932.825
860.9264
796.4447
732.2838
668.3853
603.1802
537.5796
932.5485
860.8075
796.4521
732.4138
668.6782
604.137
538.7781
932.2299
860.6751
796.4464
732.5526
668.9875
605.2449
539.7374
931.8681
860.5086
796.4408
732.6935
669.2543
605.7181
540.2231
931.4225
860.2937
796.405
732.8286
669.5361
606.137
540.7596
930.908
860.0348
796.3379
732.9513
669.8454
606.639
542.1385
930.3004
859.7052
796.224
733.0598
670.1571
607.1739
543.6939
929.7636
859.4797
796.1073
733.1427
670.446
607.6351
544.4475
929.0834
859.1071
795.8791
733.1725
670.7196
608.1071
545.1645
928.0709
858.7915
796.0694
733.2204
670.9427
608.5599
545.8783
926.8343
858.3789
796.4338
733.9121
671.2197
608.9855
546.4722
925.3754
857.5796
796.5545
734.1363
671.4022
609.3641
547.0295
923.7319
856.5966
796.1949
734.7387
672.4897
609.8327
547.5311
921.9198
855.5623
795.7455
735.4548
674.0726
611.4464
548.1299
920.0335
854.5757
795.3363
735.6909
675.4706
612.3578
548.6418
918.2711
853.8175
795.1831
735.9044
676.1382
614.2849
550.6367
916.8329
853.5056
795.4826
736.6768
677.4407
617.1586
552.6455
916.226
854.3811
797.1498
739.6852
681.8757
622.7882
558.1197
916.8536
858.06
803.9709
748.7015
693.2994
632.8549
561.9482
920.616
867.5349
820.5315
770.786
711.7574
638.2262
556.4398
930.791
888.8372
850.3029
797.8572
722.0073
633.2798
535.1824
952.5181
921.8491
881.4621
808.9543
717.3759
615.4582
514.0843
987.8355
956.2815
892.8382
805.5741
704.6447
597.4797
537.5573
1031.018
972.6467
889.6804
799.4684
696.6113
630.4877
615.4208
1071.744
969.3558
885.4061
795.0522
728.0192
716.6782
719.9346
1097.807
965.5781
891.5456
817.4514
805.3787
828.4864
823.2292
1107.037
967.5203
907.6835
872.6004
907.0981
934.2217
908.901
1108.087
974.3193
935.7724
945.4825
1011.499
1030.204
974.8556
1111.17
993.0159
970.5693
1018.517
1097.153
1098.123
1047.345
1118.981
1017.736
1023.151
1096.432
1171.849
1153.285
1107.593
1124.314
1039.579
1068.41
1143.348
1210.227
1176.061
1123.918
1124.534
1054.816
1100.242
1179.348
1233.957
1183.355
1106.348
1124.814
1065.609
1122.617
1204.669
1248.513
1190.346
1099.334
1129.811
1074.071
1137.728
1221.342
1259.637
1197.778
1100.531
1133.137
1076.266
1139.3
1223.089
1262.39
1201.903
1105.533
1134.919
1072.562
1128.074
1211.133
1258.42
1203.877
1115.995
1141.084
1064.634
1106.375
1186.134
1244.342
1198.225
1126.713
1146.402
1049.507
1070.398
1143.264
1211.619
1180.016
1132.111
1145.634
1028.215
1021.034
1087.192
1161.221
1143.686
1096.598
1140.789
1005.899
970.5063
1008.474
1083.649
1085.558
1032.942
1138.955
991.2156
940.3952
934.2066
990.2681
1009.898
955.9143
1136.46
987.8252
919.1926
866.651
883.0669
908.0251
886.6152
1122.726
987.7233
909.7149
823.1434
787.9587
799.8148
798.7155
1090.477
990.0727
907.2176
812.7453
728.386
693.5623
693.2468
1043.903
990.0791
911.027
822.5847
713.1355
626.1257
597.2269
996.5052
968.159
910.2389
826.6571
728.1606
615.9078
535.329
958.3688
929.674
892.6605
825.6606
739.201
641.848
528.4534
934.636
894.0587
857.1599
808.1799
738.0983
653.212
557.2239
923.071
870.8331
824.9797
776.8727
720.7866
650.7615
571.6371
918.4265
860.3085
807.0608
752.7385
697.9705
638.5995
569.893
917.3291
856.1707
799.6042
742.3671
684.5768
625.4596
561.3205
917.6943
855.0143
797.4204
738.5324
679.1441
618.9956
554.4695
918.9317
855.0322
796.6904
737.4732
677.5148
615.6726
552.0469
920.5581
855.4925
796.4652
736.7901
676.1018
613.3282
549.7549
922.314
856.2476
796.5368
736.381
674.5952
611.8296
549.0369
924.0208
857.1466
796.8697
735.533
673.3377
610.6681
548.3613
925.5878
857.9899
797.1086
734.7886
672.1022
610.0807
547.7162
926.9913
858.7313
796.9122
734.4559
671.8041
609.5708
547.0318
928.2409
859.0903
796.4621
733.6551
671.4182
609.0422
546.3162
929.2399
859.3705
796.1938
733.5459
671.1096
608.494
545.5175
929.9021
859.7053
796.3794
733.4439
670.7715
607.9438
544.7293
930.4263
859.8973
796.4505
733.3072
670.4148
607.4206
543.9189
931.0212
860.2053
796.5255
733.1656
670.0514
606.8396
542.3228
931.5329
860.4417
796.564
732.9948
669.7088
606.3057
540.9046
931.9731
860.6384
796.5804
732.8219
669.3941
605.8554
540.3398
932.3184
860.7748
796.5573
732.6516
669.0979
605.349
539.826
932.6272
860.888
796.5295
732.5108
668.7714
604.2174
538.8475
932.8889
860.9988
796.5124
732.3622
668.4647
603.2567
537.6352
933.1277
861.0772
796.4907
732.2282
668.2499
602.9314
537.2909
933.3398
861.1625
796.4814
732.1149
667.9717
602.6474
537.0195
933.5359
861.2441
796.4502
731.9537
667.1751
601.9527
536.7186
933.7296
861.3162
796.4301
731.812
666.5066
601.0859
536.4328
933.9194
861.3975
796.4196
731.7422
666.3627
600.8822
536.2351
934.1122
861.4842
796.4369
731.6778
666.2457
600.7405
536.0499
934.3223
861.5976
796.4751
731.5958
666.128
600.6041
535.8667
934.5448
861.7128
796.489
731.1135
665.7005
600.4506
535.6899
934.7943
861.8657
796.5359
730.7408
665.152
600.2864
535.5321
935.1058
862.0613
796.6391
730.753
665.0897
600.1801
535.3761
935.4786
862.3335
796.7896
730.7982
665.0596
600.0814
535.2274
935.9718
862.6648
796.9753
730.858
665.0271
599.9728
535.0685
936.604
863.0868
797.2047
730.9228
664.9808
599.8432
534.8834
937.4219
863.6403
797.4754
730.9777
664.9043
599.6736
534.6636
938.5367
864.3817
797.7551
730.9828
664.7582
599.4201
534.3711
940.1262
865.3121
797.7184
730.6588
664.4408
599.0394
533.9516
942.442
866.4059
797.5773
729.986
663.8429
598.4466
532.4852
945.7637
867.4164
797.1839
729.0917
662.916
596.6667
530.7779
949.3235
867.4784
795.6345
727.4209
660.4539
594.4868
528.9279
947.6864
864.585
792.2972
723.397
657.1977
592.0055
526.9408
882.0594
857.2589
784.7352
717.5976
653.2929
589.3051
524.905
185.1961
743.8136
776.8164
710.3973
648.6636
586.4712
522.8997
457.7572
388.7835
314.2997
258.065
183.7959
110.6453
38.2066
459.1032
390.2043
315.7251
259.3966
184.9159
111.5357
39.80092
460.6693
391.6925
317.2445
242.4971
185.9977
112.4063
40.74435
462.3265
393.2179
318.6427
262.2925
187.1387
113.2841
41.63124
463.968
394.7697
320.1388
263.7394
188.2798
114.1656
42.2912
465.5764
396.3275
321.6513
265.1895
189.4119
115.0475
42.93812
467.1225
397.8604
323.1514
266.5874
189.7284
115.9321
43.57383
468.5047
399.3662
324.6354
267.9606
190.0262
116.8143
44.20268
468.9099
400.7441
326.0484
269.3556
190.938
117.6111
44.82798
469.2108
401.1191
327.3615
270.7483
191.8409
118.4121
45.44958
469.4625
401.3966
327.7117
272.106
192.7472
119.2174
46.06857
469.6932
401.6631
327.9804
272.3882
193.6629
120.0297
46.68311
469.904
401.9189
328.253
272.6456
193.812
120.8662
47.2916
470.1122
402.1732
328.5309
272.9159
193.9819
121.0188
47.8798
470.3207
402.4402
328.8189
273.193
194.1632
121.2013
47.70041
470.5403
402.7158
329.1152
273.4843
194.3591
121.3973
47.6101
470.7647
403.0018
329.4202
273.8008
194.6579
121.602
47.57557
471
403.2911
329.7501
274.2765
197.419
121.8233
47.45607
471.2463
403.5829
330.0899
274.6199
197.821
122.0497
47.3594
471.5129
403.8955
330.4484
274.9806
198.1322
122.2885
47.22699
471.7955
404.2271
330.8209
275.366
198.4586
122.539
46.99394
472.1095
404.5808
331.2081
275.7827
198.8031
122.8041
46.827
472.4394
404.9657
331.64
276.1597
199.2458
123.0824
46.64323
472.8804
405.3908
332.1386
258.3239
202.0139
123.5297
46.45291
473.3408
405.8362
332.6178
276.9809
203.4395
123.894
46.24778
473.7834
406.3166
333.1413
277.7184
203.9985
124.2363
46.01978
474.3696
406.9015
333.7602
278.3377
204.5724
124.6465
45.72475
476.0718
407.5666
334.3891
278.9788
205.3523
128.056
45.41189
477.2711
425.4475
353.1775
279.571
206.0897
129.3909
45.14794
478.0778
426.2376
354.1256
280.3236
206.7894
129.9288
44.84943
480.4427
428.6182
354.9142
281.107
207.5408
132.5123
44.5904
482.0504
430.8504
355.7517
281.9645
208.3657
135.4997
44.33585
483.0403
434.2619
356.8784
282.8764
209.2479
136.3725
44.1887
483.7726
435.6551
359.7512
283.8176
210.1711
137.4635
48.41863
484.4355
436.6039
362.8349
284.8587
211.1181
138.4428
49.10986
485.0151
437.423
366.9561
286.3365
211.9461
139.3223
72.21511
485.4368
438.111
368.0278
289.9609
212.466
140.2014
58.21122
485.9
438.5203
368.7498
292.5823
211.7333
139.273
71.07946
486.2106
438.0751
367.2585
290.5297
205.5396
130.2027
77.76674
484.8198
433.7844
356.0529
273.2295
196.6636
130.0793
75.85615
475.3349
420.8655
329.2683
259.5055
214.5512
150.639
72.45095
456.0234
395.3883
320.2258
288.5023
237.2523
168.8172
77.79964
432.204
384.8976
358.3606
327.0596
253.531
178.0718
81.82572
443.1628
418.1167
391.7838
349.0862
280.234
186.86
89.92462
505.266
467.3321
432.9994
369.1649
293.3715
193.2953
96.94125
583.3114
507.3096
462.269
400.8842
304.7217
220.3802
107.3754
665.6469
566.3534
514.4821
419.4115
346.9192
231.0699
152.7566
727.4549
629.2493
536.1615
449.451
333.9421
264.342
175.1387
811.2155
684.3199
584.5627
458.8083
330.6275
233.8338
163.1911
888.2931
771.1976
639.8742
487.7801
348.1626
234.2777
174.3525
962.1713
865.8801
741.5385
553.1563
376.4656
253.9645
185.182
1021.697
947.1605
785.5207
598.383
421.262
292.2381
205.7134
1031.806
990.7502
783.7144
603.3219
449.8035
321.1953
231.7926
1022.452
955.215
793.2387
652.7568
479.7014
356.8412
226.0777
1028.383
947.5377
819.1658
665.9992
524.4116
526.2315
526.257
1038.956
951.6118
832.9086
699.6876
591.9869
508.297
1041.944
953.9647
833.6491
707.7972
597.2607
524.2962
1043.458
960.2772
824.8443
673.8615
561.617
459.768
1049.988
965.0041
794.2476
657.7215
481.0432
403.7435
316.6687
1045.112
984.1687
776.7585
584.8843
438.5628
317.8192
223.5532
1008.34
971.1771
756.9155
561.8446
392.4968
281.7574
197.412
946.4602
914.6664
727.6896
569.4808
408.5715
288.7002
202.5936
878.8659
849.1395
677.8344
539.4532
406.7185
268.2682
195.0074
799.651
770.9276
634.3882
525.6748
372.8704
266.4857
206.6178
711.7892
695.8804
579.6497
460.5415
374.4564
256.5532
142.9239
646.7188
618.6185
511.5613
448.0933
335.5409
245.389
131.2726
573.4364
554.3064
476.0555
400.6951
325.1302
196.127
102.3405
493.3796
493.4558
426.6856
375.5297
284.6906
183.3639
82.34671
443.0303
420.6861
390.17
325.7741
257.9531
171.4757
88.25494
443.7572
374.0043
353.9383
301.8765
231.0941
154.286
71.69131
473.2454
383.5284
317.0755
277.2524
218.663
157.4417
81.37592
486.0055
414.6426
321.8187
250.9384
204.6354
153.4134
75.08186
489.0684
430.7978
349.1792
261.4125
193.0081
134.3912
68.60909
488.1589
437.0124
364.5908
283.7789
197.7345
124.3683
76.64397
487.2179
438.1504
369.1947
293.1685
207.7486
134.6079
81.37741
486.5036
437.7721
369.087
291.1326
212.456
141.2485
67.85256
485.916
437.1654
368.1765
288.8573
212.4626
140.0525
59.60703
485.1932
436.4278
365.8851
285.8411
211.8082
139.0878
50.47111
484.3948
435.5702
361.7583
284.6312
210.8726
138.0464
48.6792
483.5472
434.5439
358.0099
283.612
209.8908
137.0212
47.14584
482.4605
431.9937
356.6155
282.6189
208.9381
136.004
44.19771
480.7706
429.5416
355.5506
281.6811
208.047
134.7807
44.44685
478.3245
426.5025
354.6771
280.8179
207.225
130.4321
44.66399
477.4653
425.5164
353.829
280.0437
206.4829
129.6756
44.96102
476.2159
407.6766
334.4672
279.1158
205.7691
129.1106
45.23106
474.49
406.9982
333.8267
278.4898
204.9524
125.961
45.51752
473.8801
406.3932
333.2084
277.8956
204.2886
124.4192
45.82077
473.4169
405.8929
332.6589
277.3484
203.7174
124.0573
46.05993
472.9368
405.4261
332.146
276.8339
203.0969
123.7229
46.29878
472.4827
405.0035
331.6788
276.3398
200.1641
123.2739
46.49273
472.1463
404.6133
331.2394
275.8825
198.9701
122.9267
46.68357
471.8298
404.2451
330.8311
275.4651
198.6157
122.6549
46.88074
471.5345
403.908
330.4511
275.0666
198.2767
122.3973
47.04465
471.2577
403.594
330.088
274.6963
197.9602
122.1518
47.20712
471.0097
403.2969
329.751
274.3409
197.6609
121.9193
47.33695
470.7708
403.0037
329.4217
273.9185
196.2081
121.6935
47.43672
470.5458
402.7171
329.1136
273.5347
194.4465
121.4809
47.53267
470.3312
402.4484
328.8217
273.2262
194.2487
121.2793
47.62002
470.1301
402.1911
328.5414
272.9277
194.06
121.0891
47.69895
469.9332
401.9466
328.2692
272.646
193.8867
120.9125
47.45322
469.7402
401.7044
328.0089
272.3682
193.7209
120.4203
46.84846
469.5384
401.4571
327.7519
272.0968
193.1954
119.6058
46.23736
469.3243
401.2042
327.4144
271.2714
192.2947
118.7964
45.62096
469.0722
400.863
326.1204
269.8763
191.3931
117.9944
45.00283
468.7292
399.5284
324.7353
268.4713
190.4949
117.1951
44.38301
467.429
398.0675
323.2769
267.0596
189.6375
116.3589
43.76214
465.9663
396.5769
321.7979
265.7206
189.952
115.475
43.13841
464.4339
395.0482
320.3043
264.2996
188.855
114.5938
42.50921
462.8286
393.4905
318.801
262.8888
187.7265
113.7164
41.87028
461.1491
391.9201
317.2983
261.4818
186.5988
112.8406
41.13637
459.4718
390.3739
315.8076
260.1045
185.4729
111.9678
40.21522
457.8291
388.8149
314.327
258.7512
184.3521
111.0931
39.02984
0
0
0
0
0
0
0
0
0
0
0
0
0
0
0
0
0
0
0
0
0
0
0
0
0
0
0
0
0
0
0
0
0
0
0
0
0
0
0
0
0
0
0
0
0
0
0
0
0
0
0
0
0
0
0
0
0
0
0
0
0
0
0
0
0
0
0
0
0
0
0
0
0
0
0
0
0
0
0
0
0
0
0
0
0
0
0
0
0
0
0
0
0
0
0
0
0
0
0
0
0
0
0
0
0
0
0
0
0
0
0
0
0
0
0
0
0
0
0
0
0
0
0
0
0
0
0
0
0
0
0
0
0
0
0
0
0
0
0
0
0
0
0
0
0
0
0
0
0
0
0
0
0
0
0
0
0
0
0
0
0
0
0
0
0
0
0
0
0
0
0
0
0
0
0
0
0
0
0
0
0
0
0
0
0
0
0
0
0
0
0
0
0
0
0
0
0
0
0
0
0
0
0
0
0
0
0
0
0
0
0
0
0
0
0
0
0
0
0
0
0
0
0
0
0
0
0
0
0
0
0
0
0
0
0
0
0
0
0
0
0
0
0
0
0
0
0
0
0
0
0
0
0
0
0
0
0
0
0
0
0
0
0
0
0
0
0
0
0
0
0
0
0
0
0
0
0
0
0
0
0
0
0
0
0
0
0
0
0
0
0
0
0
0
0
0
0
0
0
0
0
0
0
0
0
0
0
0
0
0
0
0
0
0
0
0
0
0
0
0
0
0
0
0
0
0
0
0
0
0
0
0
0
0
0
0
0
0
0
0
0
0
0
0
0
0
0
0
0
0
0
0
0
0
0
0
0
0
0
0
0
0
0
0
0
0
0
0
0
0
0
0
0
0
0
0
0
0
0
0
0
0
0
0
0
0
0
0
0
0
0
0
0
0
0
0
0
0
0
0
0
0
0
0
0
0
0
0
0
0
0
0
0
0
0
0
0
0
0
0
0
0
0
0
0
0
0
0
0
0
0
0
0
0
0
0
0
0
0
0
0
0
0
0
0
0
0
0
0
0
0
0
0
0
0
0
0
0
0
0
0
0
0
0
0
0
0
0
0
0
0
0
0
0
0
0
0
0
0
0
0
0
0
0
0
0
0
0
0
0
0
0
0
0
0
0
0
0
0
0
0
0
0
0
0
0
0
0
0
0
0
0
0
0
0
0
0
0
0
0
0
0
0
0
0
0
0
0
0
0
0
0
0
0
0
0
0
0
0
0
0
0
0
0
0
0
0
0
0
0
0
0
0
0
0
0
0
0
0
0
0
0
0
0
0
0
0
0
0
0
0
0
0
0
0
0
0
0
0
0
0
0
0
0
0
0
0
0
0
0
0
0
0
0
0
0
0
0
0
0
0
0
0
0
0
0
0
0
0
0
0
0
0
0
0
0
0
0
0
0
0
0
0
0
0
0
0
0
0
0
0
0
0
0
0
0
0
0
0
0
0
0
0
0
0
0
0
0
0
0
0
0
0
0
0
0
0
0
0
0
0
0
0
0
0
0
0
0
0
0
0
0
0
0
0
0
0
0
0
0
0
0
0
0
0
0
0
0
0
0
0
0
0
0
0
0
0
0
0
0
0
0
0
0
0
0
0
0
0
0
0
0
0
0
0
0
0
0
0
0
0.3460657
0
0
0
0
0
0
0
0
0
0
0
0
0
0
0
0
0
1.675256
0
0
0
0
0
0
0
0
0
0
0
0
0
0
0
0
0
3.990874
0
0
0
0
0
0
0
0
0
0
0
0
0
0
0
0
0
10.61044
0
0
0
0
0
0
0
0
0
0
0
0
0
0
0
0
0
25.68106
0
0
0
0
0
0
0
0
0
0
0
0
0
0
0
0
0
41.8081
0
0
0
0
0
0
0
0
0
0
0
0
0
0
0
0
0
30.51774
0
0
0
0
0
0
0
0
0
0
0
0
0
0
0
0
0
32.40886
0
0
0
0
0
0
0
0
0
0
0
0
0
0
0
0
0
45.99289
0
0
0
0
0
0
0
0
0
0
0
0
0
0
0
0
0
40.53876
0
0
0
0
0
0
0
0
0
0
0
0
0
38.86095
33.70414
0
0
0
0
0
0
0
0
84.81057
0
0
0
0
0
0
0
0
0
0
0
0
0
0
0
0
0
0
0
0
0
0
0
0
0
0
0
0
0
0
0
0
0
0
0
0
0
0
0
0
0
0
0
0
0
0
0
0
0
80.99483
0
0
0
0
0
0
54.23766
32.51041
0
0
0
0
0
0
0
101.0477
0
0
0
0
0
0
0
0
0
0
0
32.26415
0
0
0
0
0
0
0
0
0
0
0
0
0
0
0
0
0
33.88485
0
0
0
0
0
0
0
0
0
0
0
0
0
0
0
0
0
22.32573
0
0
0
0
0
0
0
0
0
0
0
0
0
0
0
0
0
23.51629
0
0
0
0
0
0
0
0
0
0
0
0
0
0
0
0
0
19.61999
0
0
0
0
0
0
0
0
0
0
0
0
0
0
0
0
0
21.87541
0
0
0
0
0
0
0
0
0
0
0
0
0
0
0
0
0
10.65144
0
0
0
0
0
0
0
0
0
0
0
0
0
0
0
0
0
3.303667
0
0
0
0
0
0
0
0
0
0
0
0
0
0
0
0
0
1.006656
0
0
0
0
0
0
0
0
0
0
0
0
0
0
0
0
0
0.1464302
0
0
0
0
0
0
0
0
0
0
0
0
0
0
0
0
0
0
0
0
0
0
0
0
0
0
0
0
0
0
0
0
0
0
0
0
0
0
0
0
0
0
0
0
0
0
0
0
0
0
0
0
0
0
0
0
0
0
0
0
0
0
0
0
0
0
0
0
0
0
0
0
0
0
0
0
0
0
0
0
0
0
0
0
0
0
0
0
0
0
0
0
0
0
0
0
0
0
0
0
0
0
0
0
0
0
0
0
0
0
0
0
0
0
0
0
0
0
0
0
0
0
0
0
0
0
0
0
0
0
0
0
0
0
0
0
0
0
0
0
0
0
0
0
0
0
0
0
0
0
0
0
0
0
0
0
0
0
0
0
0
0
0
0
0
0
0
0
0
0
0
0
0
0
0
0
0
0
0
0
0
0
0
0
0
0
0
0
0
0
0
0
0
0
0
0
0
0
0
0
0
0
0
0
0
0
0
0
0
0
0
0
0
0
0
0
0
0
0
0
0
0
0
0
0
0
0
0
0
0
0
0
0
0
0
0
0
0
0
0
0
0
0
0
0
0
0
0
0
0
0
0
0
0
0
0
0
0
0
0
0
0
0
0
0
0
0
0
0
0
0
0
0
0
0
0
0
0
0
0
0
0
0
0
0
0
0
0
0
0
0
0
0
0
0
0
0
0
0
0
0
0
0
0
0
0
0
0
0
0
0
0
0
0
0
0
0
0
0
0
0
0
0
0
0
0
0
0
0
0
0
0
0
0
0
0
0
0
0
0
0
0
0
0
0
0
0
0
0
0
0
0
0
0
0
0
0
0
0
0
0
0
0
0
0
0
0
0
0
0
0
0
0
0
0
0
0
0
0
0
0
0
0
0
0
0
0
0
0
0
0
0
0
0
0
0
0
0
0
0
0
0
0
0
0
0
0
0
0
0
0
0
0
0
0
0
0
0
0
0
0
0
0
0
0
0
0
0
0
0
0
0
0
0
0
0
0
0
0
0
0
0
0
0
0
0
0
0
0
0
0
0
0
0
0
0
0
0
0
0
0
0
0
0
0
0
0
0
0
0
0
0
0
0
0
0
0
0
0
0
0
0
0
0
0
0
0
0
0
0
0
0
0
0
0
0
0
0
0
0
0
0
0
0
0
0
0
0
0
0
0
0
0
0
0
0
0
0
0
0
0
0
0
0
0
0
0
0
0
0
0
0
0
0
0
0
0
0
0
0
0
0
0
0
0
0
0
0
0
0
0
0
0
0
0
0
0
0
0
0
0
0
0
0
0
0
0
0
0
0
0
0
0
0
0
0
0
0
0
0
0
0
0
0
0
0
0
0
0
0
0
0
0
0
0
0
0
0
0
0
0
0
0
0
0
0
0
0
0
0
0
0
0
0
0
0
0
0
0
0
0
0
0
0
0
0
0
0
0
0
0
0
0
0
0
0
0
0
0
0
0
0
0
0
0
0
0
0
0
0
0
0
0
0
0
0
0
0
0
0
0
0
0
0
0
0
0
0
0
0
0
0
0
0
0
0
0
0
0
0
0
0
0
0
0
0
0
0
0
0
0
0
0
0
0
0
0
0
0
0
0
0
0
0
0
0
0
0
0
0
0
0
0
0
0
0
0
0
0
0
0
0
0
0
0
0
0
0
0
0
0
0
0
0
0
0
0
0
0
0
0
0
0
0
0
0
0
0
0
0
0
0
0
0
0
0
0
0
0
0
0
0
0
0
0
0
0
0
0
0
0
0
0
0
0
0
0
0
0
0
0
0
0
0
0
0
0
0
0
0
0
0
0
0
0
0
0
0
0
0
0
0
0
0
0
0
0
0
0
0
0
0
0
0
0
0
0
0
0
0
0
0
0
0
0
0
0
0
0
0
0
0
0
0
0
0
0
0
0
0
0
0
0
0
0
0
0
0
0
0
0
0
0
0
0
0
0
0
0
0
0
0
0
0
0
0
0
0
0
0
0
0
0
0
0
0
0
0
0
0
0
0
0
0
0
0
0
0
0
0
0
0
0
0
0
0
0
0
0
0
0
0
0
0
0
0
0
0
0
0
0
0
0
0
0
0
0
0
0
0
0
0
0
0
0
0
0
0
0
0
0
0
0
0
0
0
0
0
0
0
0
0
0
0
0
0
0
0
0
0
0
0
0
0
0
0
0
0
0
0
0
0
0
0
0
0
0
0
0
0
0
0
0
0
0
0
0
0
0
0
0
0
0
0
0
0
0
0
0
0
0
0
0
0
0
0
0
0
0
0
0
0
0
0
0
0
0
0
0
0
0
0
0
0
0
0
0
0
0
0
0
0
0
0
0
0
0
0
0
0
0
0
0
0
0
0
0
0
0
0
0
0
0
0
0
0
0
0
0
0
0
0
0
0
0
0
0
0
0
0
0
0
0
0
0
0
0
0
0
0
0
0
0
0
0
0
0
0
0
0
0
0
0
0
0
0
0
0
0
0
0
0
0
0
0
0
0
0
0
0
0
0
0
0
0
0
0
0
0
0
0
0
0
0
0
0
0
0
0
0
0
0
0
0
0
0
0
0
0
0
0
0
0
0
0
0
0
0
0
0
0
0
0
0
0
0
0
0
0
0
0
0
0
0
0
0
0
0
0
0
0
0
0
0
0
0
0
0
0
0
0
0
0
0
0
0
0
0
0
0
0
0
0
0
0
0
0
0
0
0
0
0
0
0
0
0
0
0
0
0
0
0
0
0
0
0
0
0
0
0
0
0
0
0
0
0
0
0
0
0
0
0
0
0
0
0
0
0
0
0
0
0
0
0
0
0
0
0
0
0
0
0
0
0
0
0
0
0
0
0
0
0
0
0
0
0
0
0
0
0
0
0
0
0
0
0
0
0
0
0
0
0
0
0
0
0
0
0
0
0
0
0
0
0
0
0
0
0
0
0
0
0
0
0
0
0
0
0
0
0
0
0
0
0
0
0
0
0
0
0
0
0
0
0
0
0
0
0
0
0
0
0
0
0
0
0
0
0
0
0
0
0
0
0
0
0
0
0
0
0
0
0
0
0
0
0
0
0
0
0
0
0
0
0
0
0
0
0
0
0
0
0
0
0
0
0
0
0
0
0
0
0
0
0
0
0
0
0
0
0
0
0
0
0
0
0
0
0
0
0
0
0
0
0
0
0
0
0
0
0
0
0
0
0
0
0
0
0
0
0
0
0
0
0
0
0
0
0
0
0
0
0
0
0
0
0
0
0
0
0
0
0
0
0
0
0
0
0
0
0
0
0
0
0
0
0
0
0
0
0
0
0
0
0
0
0
0
0
0
0
0
0
0
0
0
0
0
0
0
0
0
0
0
0
0
0
0
0
0
0
0
0
0
0
0
0
0
0
0
0
0
0
0
0
0
0
0
0
0
0
0
0
0
0
0
0
0
0
0
0
0
0
0
0
0
0
0
0
0
0
0
0
0
0
0
0
0
0
0
0
0
0
0
0
0
0
0
0
0
0
0
0
0
0
0
0
0
0
0
0
0
0
0
0
0
0
0
0
0
0
0
0
0
0
0
0
0
0
0
0
0
0
0
0
0
0
0
0
0
0
0
0
0
0
0
0
0
0
0
0
0
0
0
0
0
0
0
0
0
0
0
0
0
0
0
0
0
0
0
0
0
0
0
0
0
0
0
0
0
0
0
0
0
0
0
0
0
0
0
0
0
0
0
0
0
0
0
0
0
0
0
0
0
0
0
0
0
0
0
0
0
0
0
0
0
0
0
0
0
0
0
0
0
0
0
0
0
0
0
0
0
0
0
0
0
0
0
0
0
0
0
0
0
0
0
0
0
0
0
0
0
0
0
0
0
0
0
0
0
0
0
0
0
0
0
0
0
0
0
0
0
0
0
0
0
0
0
0
0
0
0
0
0
0
0
0
0
0
0
0
0
0
0
0
0
0
0
0
0
0
0
0
0
0
0
0
0
0
0
0
0
0
0
0
0
0
0
0
0
0
0
0
0
0
0
0
0
0
0
0
0
0
0
0
0
0
0
0
0
0
0
0
0
0
0
0
0
0
0
0
0
0
0
0
0
0
0
0
0
0
0
0
0
0
0
0
0
0
0
0
0
0
0
0
0
0
0
0
0
0
0
0
0
0
0
0
0
0
0
0
0
0
0
0
0
0
0
0
0
0
0
0
0
0
0
0
0
0
0
0
0
0
0
0
0
0
0
0
0
0
0
0
0
0
0
0
0
0
0
0
0
0
0
0
0
0
0
0
0
0
0
0
0
0
0
0
0
0
0
0
0
0
0
0
0
0
0
0
0
0
0
0
0
0
0
0
0
0
0
0
0
0
0
0
0
0
0
0
0
0
0
0
0
0
0
0
0
0
0
0
0
0
0
0
0
0
0
0
0
0
0
0
0
0
0
0
0
0
0
0
0
213.0153
161.2736
220.1428
329.9265
257.7493
466.4747
471.0163
528.092
565.8521
525.948
566.3674
522.1698
507.4982
462.7847
261.6065
499.7628
506.9356
219.0569
150.6601
201.145
233.4746
0
0
0
0
0
0
0
0
0
0
0
0
0
0
0
0
0
0
0
0
0
0
0
0
0
0
0
29.39735
0
0
9.832445
100.3467
0
0
0
0
0
0
0
0
0
0
0
0
0
0
0
0
0
0
0
0
0
0
0
0
0
0
0
0
0
0
0
0
13.03453
89.31275
0
0
0
0
36.85123
0
0
0
0
0
0
0
0
0
0
0
0
0
0
0
0
0
0
0
0
0
0
0
0
0
0
0
0
0
0
0
220.9052
221.5636
258.7324
146.9749
147.436
184.3573
74.88477
75.31995
111.1046
0.1874156
0.4776094
39.06803
222.2661
222.8835
260.064
147.8817
148.3194
185.4478
75.76945
76.20757
111.981
0.9294945
0.9836181
40.27561
148.7559
149.1959
186.4752
76.65685
77.09753
112.8432
1.037171
1.088162
41.21256
225.0153
225.7017
262.7536
149.6521
150.1065
187.7296
77.54393
77.9952
113.7295
1.135819
1.179264
41.96308
226.3646
227.0301
264.2167
150.5647
151.0013
188.8523
78.44596
78.89823
114.6108
1.217934
1.2515
42.61807
151.4548
151.8968
189.9386
79.33622
79.71748
115.4881
1.27991
1.30295
43.25734
228.4423
228.317
267.0071
152.2934
152.7038
189.6299
80.10143
80.48865
116.3744
1.320798
1.333433
43.89022
153.1506
153.5901
190.4991
80.87728
81.26657
117.216
1.341117
1.343909
44.51737
230.004
230.5748
269.8316
154.0443
154.4803
191.4022
81.66165
82.05187
118.0194
1.342156
1.336138
45.13937
231.1487
231.7172
271.2351
154.9332
155.3344
192.2964
82.44878
82.84392
118.8199
1.326034
1.312284
45.75978
232.2898
232.8369
272.0689
155.7479
156.1531
193.2045
83.24475
83.64407
119.6278
1.294985
1.274462
46.37818
232.9161
233.0254
272.3542
156.5701
156.9947
193.7429
84.04937
84.45192
120.4417
1.251058
1.224737
46.98981
233.1443
233.245
272.6432
157.0667
157.1415
193.9089
84.86017
85.28998
120.9295
1.196311
1.168231
47.58976
233.3679
233.4755
272.9332
157.2312
157.3148
194.0792
85.35316
85.44704
121.111
1.132795
1.239632
47.83299
233.6009
233.7186
273.2099
157.4124
157.5017
194.2569
85.54746
85.64026
121.3015
1.191553
1.429546
47.74076
233.8323
233.9727
273.5095
157.5983
157.6986
194.4442
85.7504
85.84526
121.498
1.390726
1.487076
47.63896
234.1652
235.5157
273.9219
157.7953
157.9957
196.2209
85.95364
86.05802
121.706
1.520973
1.561954
47.52771
237.0174
237.3334
274.3625
158.1789
158.2913
197.6848
86.16756
86.28423
121.9309
1.603316
1.642034
47.4209
237.5353
237.7018
274.7126
158.4074
158.524
197.978
86.39798
86.51881
122.1675
1.685562
1.726849
47.29725
237.8996
238.0902
275.0694
158.6471
158.7693
198.2877
86.64531
86.76753
122.4146
1.763152
1.799602
47.12257
238.2786
238.4954
275.4553
158.8965
159.0302
198.6181
86.90191
87.02766
122.6799
1.835845
1.87059
46.95448
238.7016
238.9446
275.8716
159.1686
159.3077
198.984
87.17152
87.30133
122.9466
1.908648
1.943527
46.76046
239.2125
239.2578
276.4941
159.4867
160.5801
200.1684
87.44464
87.59038
123.2815
1.984778
2.021546
46.56951
162.3318
163.2459
203.0345
87.74133
87.89975
123.7226
2.063308
2.105479
46.35828
240.4932
240.6041
277.2294
163.4975
163.7182
203.7251
88.05868
88.22474
124.0628
2.148709
2.189945
46.12596
240.842
241.1154
277.8628
163.9452
164.1766
204.281
88.39879
88.57277
124.4202
2.23435
2.279552
45.87187
241.4194
241.7173
278.4431
164.5123
165.6416
204.937
88.75658
89.01727
125.9459
2.326129
2.374219
45.56399
242.0303
242.3756
279.0402
167.7431
168.9751
205.7123
89.32124
89.57603
129.0925
2.423931
2.474097
45.26958
390.4533
390.543
425.3719
316.7669
316.9543
353.7357
242.7168
243.0982
279.9407
169.4006
169.7505
206.4402
89.77443
89.97737
129.6506
2.524969
2.579497
44.99815
390.8434
391.183
426.2968
317.2655
317.6391
354.499
243.4719
243.8582
280.7299
170.1022
170.4665
207.1664
90.18068
90.50481
130.4067
2.635851
2.692749
44.69274
391.698
392.1964
429.2529
318.0428
318.4524
355.3369
244.2815
244.6865
281.543
170.9461
171.4441
207.9611
92.87028
94.64032
134.7308
2.751117
2.813232
44.46652
392.8663
394.792
431.6426
318.8981
319.3302
356.3309
245.1448
245.5806
282.4125
171.8759
172.3037
208.8017
95.12228
95.40695
135.9274
2.874878
2.939762
44.20354
396.1189
397.0939
434.1071
319.7767
320.2315
357.6295
246.0283
246.4913
283.3281
172.7466
173.2007
209.6746
95.92493
98.58305
136.9208
3.011212
3.106705
47.12529
398.9444
400.8909
435.0215
320.834
321.4594
361.3363
246.9271
247.4216
284.2698
173.6435
174.1182
210.6226
100.8866
101.6881
137.9281
3.218588
3.531457
48.5591
401.8986
402.4631
435.7853
322.9933
325.1918
365.3591
247.8746
248.3159
285.4484
174.5945
175.0742
211.5542
102.2703
102.9409
138.9546
3.853938
3.925554
49.91225
402.9349
403.3415
436.4183
326.6945
328.7991
367.5828
248.686
249.2107
288.5152
175.46
175.7602
212.263
103.1413
104.1603
139.6994
4.64379
5.612255
58.31595
403.7404
404.0563
436.8874
330.9352
332.0259
368.4387
249.5725
249.9299
290.9749
175.8947
175.8755
212.5483
105.8478
108.3493
140.3736
5.790868
5.929187
62.0196
404.3159
404.3227
436.9956
332.278
331.6953
368.5388
250.8722
249.8297
293.2465
174.1195
170.0647
208.5545
110.0285
108.1769
135.567
15.14385
20.43472
78.72025
403.4888
401.0483
435.1673
329.4026
323.949
363.1674
247.8189
242.8526
283.5285
165.5036
160.5514
199.4687
102.938
97.66478
126.5151
22.00824
25.38424
77.10046
395.5473
387.1732
425.4523
314.6942
301.4126
344.6182
235.2518
229.8436
262.1805
162.5588
172.4449
203.0689
96.59336
101.5124
139.892
29.53355
34.94152
72.54259
373.725
359.3889
401.474
289.5361
289.3069
317.9088
236.4692
252.2603
269.7447
183.0539
194.2072
227.8293
110.6527
117.0528
163.209
39.55714
43.29651
73.64368
348.2317
355.2482
370.3193
305.1698
327.5181
339.2277
267.4395
282.3507
309.0854
201.9089
208.533
245.7914
125.1351
131.9158
172.775
46.61845
50.22975
81.96129
365.3387
384.8754
384.7925
344.0142
357.3659
376.3823
295.4921
310.7088
339.6615
215.4245
222.9788
270.7119
140.1766
147.4655
181.3246
55.32043
61.53797
81.03659
406.9088
428.7921
436.9908
365.7347
381.1114
408.6185
318.2203
327.7535
352.7509
229.4477
246.3006
290.1322
153.7526
158.6851
191.0948
62.13959
67.80823
93.62175
452.3006
469.6655
497.4415
405.8135
418.2411
439.2445
328.156
350.5743
393.5905
255.4694
266.0434
299.2477
163.3015
171.4503
209.0377
76.98159
81.70304
98.38861
495.2729
528.399
572.9061
427.135
441.5088
489.0422
365.5736
383.8528
413.1284
267.9144
270.2137
329.2614
186.8436
198.1362
222.9301
90.19939
90.26767
113.6939
544.6033
571.5768
631.5315
467.9747
492.0806
520.2605
383.7734
387.53
442.4563
294.3164
310.073
343.2116
219.9618
225.3896
257.1701
112.4199
91.23771
164.1129
605.945
634.3978
703.101
494.3879
504.3893
561.8694
400.3597
395.9323
439.2861
297.5522
282.4664
339.6066
236.5114
227.4735
255.7575
58.85477
52.40834
159.7017
654.7776
677.977
763.5467
524.5199
535.2513
600.1922
383.1504
405.8766
471.5752
280.5114
277.6555
327.0843
212.0773
190.2312
231.6537
50.84251
95.19902
172.5119
706.1683
758.8773
861.5359
560.3586
593.3554
660.1973
411.256
425.0994
508.2139
275.0435
295.5459
364.8743
193.9586
203.6606
245.2571
130.6285
155.1575
191.156
821.357
848.469
944.9219
655.7665
685.0512
757.6149
469.3095
479.7517
585.1753
321.8126
337.6487
403.4266
211.1455
228.8195
282.4181
134.277
161.5706
199.1897
871.786
889.0354
983.7243
682.0684
699.1162
776.3871
494.4832
493.2274
586.4377
345.065
355.3261
421.2832
243.4248
253.2629
301.3831
164.7929
173.2535
201.1119
882.6892
883.4024
956.0539
693.4857
703.3242
775.9422
517.7884
533.7002
622.0324
366.373
396.6488
474.8564
281.0253
288.5801
331.1789
864.7007
859.0105
940.7253
739.3227
754.0628
788.0668
546.8458
593.2921
673.1786
413.2985
455.4937
512.9139
321.9617
382.1291
419.3012
871.7317
877.3834
954.7923
756.3241
777.8686
826.0458
602.8268
637.2607
677.2839
419.8643
519.4805
566.9918
898.0592
887.5374
960.9644
777.0087
772.2486
831.4008
635.8406
655.1478
706.8464
566.0771
587.0493
602.6044
887.2438
892.3258
966.8119
768.1132
767.8845
835.3918
651.6198
628.1726
694.959
589.1912
563.4786
587.2943
880.837
874.0554
972.9412
768.0502
748.5998
818.9597
625.3926
602.0185
659.1784
506.6541
396.7857
503.6761
881.3239
887.9612
988.9653
740.2266
717.6378
791.182
561.2369
501.0248
609.7127
425.5283
383.258
438.4126
369.1155
298.5346
334.1555
899.1634
888.413
996.4247
681.336
674.7318
776.4339
495.0213
485.0397
570.9625
364.9413
339.6625
412.8243
264.0186
272.4791
293.8256
870.715
839.8202
925.965
678.4721
655.4802
757.6917
472.0621
475.2463
562.1733
333.3577
317.6558
402.1047
233.9904
239.4004
283.5087
153.5645
153.9957
206.758
817.3424
787.4842
851.5029
649.0119
637.8539
721.2929
470.1755
478.5662
566.0819
330.5745
332.1877
412.546
237.1735
223.8842
294.2949
140.7965
128.2372
190.4813
758.2314
726.9219
771.2019
615.2212
601.008
666.2855
462.5852
469.9717
521.3379
326.2423
309.5786
393.4446
220.2871
209.9017
260.5913
158.8736
142.2559
188.0102
699.4002
662.5236
679.6372
573.3553
564.4534
609.4166
457.9872
422.8698
505.5363
321.2365
321.5136
384.6343
221.5217
241.9529
258.029
112.5287
50.31234
188.404
632.837