/*--------------------------------*- C++ -*----------------------------------*\
| =========                 |                                                 |
| \\      /  F ield         | OpenFOAM: The Open Source CFD Toolbox           |
|  \\    /   O peration     | Version:  2206                                  |
|   \\  /    A nd           | Website:  www.openfoam.com                      |
|    \\/     M anipulation  |                                                 |
\*---------------------------------------------------------------------------*/
FoamFile
{
    version     2.0;
    format      ascii;
    arch        "LSB;label=32;scalar=64";
    class       volVectorField;
    location    "1.4";
    object      U;
}
// * * * * * * * * * * * * * * * * * * * * * * * * * * * * * * * * * * * * * //

dimensions      [0 1 -1 0 0 0 0];

internalField   nonuniform List<vector> 
13078
(
(-1.002036e-06 -1.602588e-05 -1.095446e-27)
(-7.778963e-07 -9.03174e-06 6.228204e-31)
(-7.124167e-07 -4.218068e-06 7.834319e-28)
(-7.45575e-07 -3.38833e-06 0)
(-7.809827e-07 -3.059039e-06 1.634933e-28)
(-8.202223e-07 -2.639829e-06 1.118533e-28)
(-8.615799e-07 -2.267424e-06 7.466025e-29)
(-7.727295e-06 -1.370987e-05 0)
(-3.880116e-06 -5.485597e-06 -5.628403e-30)
(-1.786584e-06 -3.28536e-06 0)
(-1.586077e-06 -2.979818e-06 0)
(-1.409954e-06 -2.742574e-06 3.222051e-31)
(-1.293138e-06 -2.448295e-06 2.809703e-31)
(-1.224222e-06 -2.153805e-06 6.75414e-31)
(5.775792e-06 -2.636611e-06 6.935427e-28)
(6.80983e-07 -2.030435e-06 -3.973215e-28)
(-1.071627e-06 -2.071485e-06 -2.263225e-28)
(-1.535851e-06 -2.029548e-06 -3.703713e-28)
(-1.603206e-06 -2.017697e-06 -1.406721e-28)
(-1.544105e-06 -1.930112e-06 0)
(-1.465934e-06 -1.788728e-06 4.052879e-34)
(5.381488e-06 -3.434264e-07 3.982461e-28)
(1.687935e-06 -3.41951e-07 -5.469714e-28)
(-2.291567e-07 -7.279763e-07 -3.166116e-28)
(-1.150112e-06 -1.016473e-06 -7.180682e-29)
(-1.472808e-06 -1.199399e-06 5.164161e-32)
(-1.563083e-06 -1.288297e-06 0)
(-1.553516e-06 -1.294773e-06 -6.464097e-31)
(4.017299e-06 1.524306e-07 1.160835e-30)
(1.863632e-06 4.451589e-07 -1.831384e-28)
(2.811566e-07 1.486127e-07 -2.353309e-28)
(-6.834927e-07 -1.95175e-07 -1.010976e-28)
(-1.204447e-06 -4.832341e-07 1.284937e-28)
(-1.427916e-06 -6.773483e-07 1.296744e-33)
(-1.515285e-06 -7.830037e-07 -5.998047e-29)
(3.08408e-06 2.240157e-07 0)
(1.777933e-06 6.692918e-07 -4.152812e-30)
(5.691925e-07 5.636631e-07 5.492517e-30)
(-3.212879e-07 3.194589e-07 -5.01293e-29)
(-8.908802e-07 4.94492e-08 -1.090045e-29)
(-1.231509e-06 -1.737349e-07 7.271398e-29)
(-1.401535e-06 -3.272692e-07 1.113714e-28)
(2.363862e-06 1.901141e-07 0)
(1.562006e-06 6.662761e-07 -1.08686e-28)
(6.83995e-07 7.038973e-07 -9.113257e-30)
(-7.670965e-08 5.877246e-07 7.454304e-29)
(-6.372191e-07 3.933405e-07 -2.141653e-29)
(-1.017534e-06 1.981765e-07 -7.814919e-30)
(-1.266382e-06 4.521951e-08 0)
(1.798042e-06 1.409864e-07 1.919356e-28)
(1.295148e-06 5.93684e-07 -8.283299e-29)
(6.620583e-07 7.105147e-07 -6.034672e-29)
(5.035836e-08 6.900552e-07 0)
(-4.61139e-07 5.837494e-07 -2.055741e-29)
(-8.492049e-07 4.49047e-07 -6.623013e-30)
(-1.130428e-06 3.245066e-07 -5.239307e-30)
(1.347802e-06 9.821928e-08 -2.453299e-32)
(1.02435e-06 5.120502e-07 1.244595e-28)
(5.693712e-07 6.610297e-07 4.111583e-29)
(8.457378e-08 7.083095e-07 -5.996226e-30)
(-3.621626e-07 6.746664e-07 -3.269856e-29)
(-7.347061e-07 6.01083e-07 -5.539399e-30)
(-1.032968e-06 5.231092e-07 0)
(9.829233e-07 6.459488e-08 -1.018543e-28)
(7.688671e-07 4.386283e-07 9.027032e-29)
(4.38091e-07 5.952868e-07 3.346827e-29)
(5.536372e-08 6.835575e-07 -3.858544e-29)
(-3.277649e-07 7.038961e-07 1.300854e-31)
(-6.745767e-07 6.832253e-07 0)
(-9.766886e-07 6.511145e-07 0)
(6.815523e-07 3.887345e-08 0)
(5.356717e-07 3.775771e-07 0)
(2.904908e-07 5.299645e-07 4.426367e-29)
(-1.420369e-08 6.40307e-07 -2.190618e-29)
(-3.422005e-07 6.97401e-07 -1.09918e-31)
(-6.611761e-07 7.17763e-07 0)
(-9.602513e-07 7.247988e-07 0)
(4.277426e-07 1.917043e-08 0)
(3.25371e-07 3.282324e-07 -3.696917e-29)
(1.390411e-07 4.71295e-07 2.365154e-29)
(-1.077291e-07 5.915447e-07 9.146362e-30)
(-3.908167e-07 6.718034e-07 2.128038e-29)
(-6.838709e-07 7.213189e-07 0)
(-9.765745e-07 7.578649e-07 -7.214553e-29)
(2.098948e-07 4.165402e-09 0)
(1.359067e-07 2.890162e-07 -1.424901e-29)
(-9.807308e-09 4.211242e-07 2.042071e-30)
(-2.140962e-07 5.44108e-07 -9.410022e-30)
(-4.617974e-07 6.376993e-07 2.963726e-29)
(-7.321943e-07 7.06346e-07 -5.169314e-29)
(-1.016505e-06 7.629585e-07 -3.675652e-32)
(1.939137e-08 -7.279221e-09 -5.910531e-32)
(-3.581102e-08 2.582069e-07 0)
(-1.533035e-07 3.798819e-07 1.625867e-30)
(-3.269689e-07 5.017476e-07 1.986635e-30)
(-5.47458e-07 6.020503e-07 8.27852e-29)
(-7.979741e-07 6.827434e-07 -6.110923e-29)
(-1.072036e-06 7.525736e-07 8.288563e-29)
(-1.504382e-07 -1.587352e-08 1.766697e-29)
(-1.928152e-07 2.344122e-07 0)
(-2.897535e-07 3.467243e-07 2.561667e-30)
(-4.372516e-07 4.661545e-07 -5.940457e-29)
(-6.366366e-07 5.708485e-07 3.054134e-29)
(-8.739493e-07 6.598373e-07 0)
(-1.137806e-06 7.389565e-07 -9.035552e-29)
(-3.050927e-07 -2.194961e-08 0)
(-3.387495e-07 2.171835e-07 3.618663e-29)
(-4.220146e-07 3.222227e-07 0)
(-5.560052e-07 4.3936e-07 -5.363935e-29)
(-7.368918e-07 5.448512e-07 -1.934476e-30)
(-9.601825e-07 6.422351e-07 -8.318738e-31)
(-1.213337e-06 7.301284e-07 -9.665499e-29)
(-4.495762e-07 -2.560247e-08 0)
(-4.769302e-07 2.065984e-07 1.01778e-28)
(-5.496177e-07 3.075213e-07 7.543657e-31)
(-6.711781e-07 4.235331e-07 8.525728e-31)
(-8.40421e-07 5.310519e-07 0)
(-1.053961e-06 6.345496e-07 0)
(-1.299585e-06 7.316837e-07 0)
(-5.888147e-07 -2.695602e-08 6.342296e-29)
(-6.114448e-07 2.024682e-07 6.52397e-29)
(-6.762219e-07 3.023017e-07 1.105226e-30)
(-7.887604e-07 4.191531e-07 5.766883e-31)
(-9.495127e-07 5.302575e-07 0)
(-1.156449e-06 6.398992e-07 9.732503e-29)
(-1.397713e-06 7.466207e-07 -5.933199e-30)
(-7.278051e-07 -2.578897e-08 7.797032e-29)
(-7.464246e-07 2.054608e-07 7.933754e-29)
(-8.047153e-07 3.079508e-07 1.156852e-30)
(-9.102466e-07 4.285965e-07 6.917803e-31)
(-1.065992e-06 5.444468e-07 0)
(-1.268842e-06 6.605303e-07 1.077618e-28)
(-1.508812e-06 7.773575e-07 -3.751226e-30)
(-8.722291e-07 -2.169506e-08 9.304012e-29)
(-8.866756e-07 2.167513e-07 1.878014e-28)
(-9.385786e-07 3.262362e-07 9.631638e-29)
(-1.036745e-06 4.53249e-07 0)
(-1.185168e-06 5.755672e-07 6.449818e-30)
(-1.382514e-06 7.008198e-07 2.374006e-29)
(-1.630535e-06 8.283694e-07 8.922136e-30)
(-1.02898e-06 -1.385574e-08 1.093868e-28)
(-1.038281e-06 2.385958e-07 2.193305e-28)
(-1.082907e-06 3.60864e-07 2.218459e-28)
(-1.174641e-06 4.984539e-07 1.140641e-28)
(-1.3203e-06 6.304556e-07 9.456466e-31)
(-1.517384e-06 7.6223e-07 1.282225e-28)
(-1.766349e-06 9.021506e-07 -1.434954e-28)
(-1.206946e-06 -1.286316e-09 0)
(-1.208976e-06 2.740695e-07 1.273836e-28)
(-1.243497e-06 4.163525e-07 1.271945e-28)
(-1.325755e-06 5.701075e-07 2.572184e-28)
(-1.463599e-06 7.151669e-07 0)
(-1.659838e-06 8.567889e-07 1.387963e-28)
(-1.912637e-06 1.005758e-06 1.032748e-31)
(-1.41758e-06 1.735835e-08 -1.500195e-28)
(-1.408702e-06 3.268991e-07 0)
(-1.428749e-06 4.982419e-07 0)
(-1.496733e-06 6.750264e-07 1.665414e-31)
(-1.62381e-06 8.376795e-07 -1.445894e-28)
(-1.817323e-06 9.917975e-07 0)
(-2.070779e-06 1.148753e-06 1.559641e-28)
(-1.675572e-06 4.384505e-08 -3.538873e-28)
(-1.650161e-06 4.020201e-07 0)
(-1.648674e-06 6.143958e-07 0)
(-1.694303e-06 8.228323e-07 -1.644388e-28)
(-1.802344e-06 1.007878e-06 -3.246281e-28)
(-1.983353e-06 1.176627e-06 1.62134e-28)
(-2.225983e-06 1.343646e-06 0)
(-1.999929e-06 8.037619e-08 -2.107819e-28)
(-1.949777e-06 5.058707e-07 -2.882544e-31)
(-1.916511e-06 7.74948e-07 -1.971874e-28)
(-1.929413e-06 1.027076e-06 -4.091411e-31)
(-2.009121e-06 1.242889e-06 8.890092e-31)
(-2.169662e-06 1.431579e-06 1.754831e-28)
(-2.409129e-06 1.603073e-06 0)
(-2.414776e-06 1.295981e-07 0)
(-2.328135e-06 6.461177e-07 2.451316e-28)
(-2.249265e-06 9.914177e-07 -2.322648e-28)
(-2.21434e-06 1.302633e-06 0)
(-2.249369e-06 1.559657e-06 2.036651e-28)
(-2.373741e-06 1.772519e-06 9.996949e-30)
(-2.595018e-06 1.950463e-06 1.170919e-29)
(-2.950784e-06 1.94628e-07 3.099608e-28)
(-2.812396e-06 8.310895e-07 2.970944e-28)
(-2.669172e-06 1.276675e-06 -2.779446e-28)
(-2.565281e-06 1.666768e-06 0)
(-2.535572e-06 1.979062e-06 2.027506e-30)
(-2.604988e-06 2.223094e-06 2.768532e-32)
(-2.791974e-06 2.409103e-06 1.017141e-29)
(-3.644311e-06 2.78259e-07 3.824822e-28)
(-3.434996e-06 1.069542e-06 3.643671e-28)
(-3.203699e-06 1.646517e-06 -3.377162e-28)
(-3.005273e-06 2.139247e-06 0)
(-2.882885e-06 2.52472e-06 0)
(-2.868116e-06 2.811461e-06 2.383034e-28)
(-2.993429e-06 3.011352e-06 -2.788476e-28)
(-4.538429e-06 3.828582e-07 4.765585e-28)
(-4.234161e-06 1.369171e-06 4.540053e-28)
(-3.886294e-06 2.113448e-06 0)
(-3.563052e-06 2.740411e-06 -3.581106e-28)
(-3.314993e-06 3.22601e-06 1.107824e-29)
(-3.183282e-06 3.576433e-06 5.425179e-28)
(-3.203143e-06 3.807584e-06 6.872991e-30)
(-5.679159e-06 5.150263e-07 5.957179e-28)
(-5.256089e-06 1.730202e-06 0)
(-4.756054e-06 2.686594e-06 5.256073e-28)
(-4.273094e-06 3.486717e-06 -4.490555e-28)
(-3.861781e-06 4.105812e-06 3.929648e-28)
(-3.570464e-06 4.545703e-06 6.495178e-28)
(-3.443027e-06 4.816324e-06 2.587053e-28)
(-7.130791e-06 6.592238e-07 0)
(-6.539857e-06 2.164839e-06 0)
(-5.859833e-06 3.36985e-06 1.297437e-27)
(-5.179541e-06 4.386504e-06 0)
(-4.564072e-06 5.182459e-06 9.7792e-28)
(-4.064225e-06 5.752508e-06 3.969815e-28)
(-3.727996e-06 6.095777e-06 -3.032848e-28)
(-8.921412e-06 8.299992e-07 9.410455e-28)
(-8.126872e-06 2.668441e-06 -8.79097e-28)
(-7.251973e-06 4.135755e-06 -8.088922e-28)
(-6.338798e-06 5.427271e-06 0)
(-5.477246e-06 6.461116e-06 6.198124e-28)
(-4.72045e-06 7.222433e-06 0)
(-4.107395e-06 7.695217e-06 -3.140006e-28)
(-1.109302e-05 1.007102e-06 1.167633e-27)
(-1.008905e-05 3.178111e-06 -1.114925e-27)
(-8.959174e-06 5.017314e-06 -3.084853e-27)
(-7.822285e-06 6.563791e-06 -1.881666e-27)
(-6.67292e-06 7.918766e-06 7.382326e-28)
(-5.619287e-06 8.957818e-06 -5.55442e-29)
(-4.661694e-06 9.650037e-06 4.853016e-29)
(-1.365053e-05 1.182936e-06 -2.769116e-30)
(-1.239087e-05 3.689738e-06 -8.398914e-30)
(-1.104824e-05 5.838109e-06 -1.350703e-27)
(-9.651016e-06 7.781671e-06 -2.267542e-27)
(-8.243699e-06 9.496591e-06 1.179452e-27)
(-6.875119e-06 1.092461e-05 -1.550493e-28)
(-5.51633e-06 1.197858e-05 -2.960815e-28)
(-1.656861e-05 1.335523e-06 3.26222e-30)
(-1.502534e-05 4.147071e-06 9.91127e-30)
(-1.346428e-05 6.618201e-06 -1.553571e-27)
(-1.185956e-05 8.96995e-06 -8.360775e-28)
(-1.03032e-05 1.101032e-05 8.738638e-28)
(-8.655885e-06 1.299815e-05 -9.353794e-28)
(-6.87812e-06 1.464084e-05 0)
(-1.976211e-05 1.432149e-06 0)
(-1.792635e-05 4.444597e-06 0)
(-1.619098e-05 7.146531e-06 -1.979676e-27)
(-1.453802e-05 9.787465e-06 -2.067243e-27)
(-1.286149e-05 1.246293e-05 -2.786178e-27)
(-1.117659e-05 1.490727e-05 -2.499236e-27)
(-9.03875e-06 1.746071e-05 0)
(-2.307272e-05 1.43892e-06 7.610121e-30)
(-2.095209e-05 4.486144e-06 -2.265775e-29)
(-1.909892e-05 7.285716e-06 -7.473197e-29)
(-1.748726e-05 1.012125e-05 0)
(-1.600101e-05 1.312275e-05 -4.464249e-27)
(-1.443531e-05 1.643718e-05 3.065656e-28)
(-1.23671e-05 2.00573e-05 7.279481e-28)
(-2.626207e-05 1.318217e-06 2.792483e-27)
(-2.388863e-05 4.158867e-06 -2.2814e-29)
(-2.200151e-05 6.842836e-06 2.790852e-27)
(-2.057361e-05 9.707306e-06 0)
(-1.949146e-05 1.298357e-05 -3.047402e-27)
(-1.838352e-05 1.703258e-05 -6.229273e-28)
(-1.724513e-05 2.153631e-05 3.944838e-27)
(-2.901302e-05 1.037384e-06 3.101013e-27)
(-2.644667e-05 3.358221e-06 3.103721e-27)
(-2.461161e-05 5.63197e-06 3.186576e-27)
(-2.351975e-05 8.204955e-06 1.828968e-28)
(-2.309979e-05 1.135941e-05 5.00439e-28)
(-2.307447e-05 1.547276e-05 -2.416243e-27)
(-2.314388e-05 2.125996e-05 1.825919e-27)
(-3.096526e-05 5.8543e-07 0)
(-2.828249e-05 2.016316e-06 -3.349258e-27)
(-2.65785e-05 3.538012e-06 -3.509279e-27)
(-2.592468e-05 5.459379e-06 -7.00828e-29)
(-2.63289e-05 8.092831e-06 4.101519e-27)
(-2.762362e-05 1.192943e-05 2.895096e-28)
(-2.933705e-05 1.796325e-05 0)
(-3.176161e-05 -4.614692e-08 -3.438915e-27)
(-2.896722e-05 1.698042e-07 -7.040496e-27)
(-2.750396e-05 5.293876e-07 -3.676957e-27)
(-2.734953e-05 1.393787e-06 -7.973929e-27)
(-2.860732e-05 2.99362e-06 4.442958e-27)
(-3.123222e-05 5.685666e-06 -4.549079e-27)
(-3.647631e-05 9.868822e-06 5.30351e-27)
(-3.098612e-05 -8.245601e-07 -3.380671e-27)
(-2.821366e-05 -2.133244e-06 -4.594372e-30)
(-2.684356e-05 -3.309744e-06 0)
(-2.7291e-05 -3.857035e-06 -2.677169e-29)
(-2.942564e-05 -3.57841e-06 -9.145995e-27)
(-3.469748e-05 -3.747447e-06 -5.263307e-27)
(-5.011316e-05 -8.904083e-06 1.414395e-26)
(-2.83727e-05 -1.712615e-06 3.123097e-27)
(-2.563272e-05 -4.745785e-06 3.421546e-29)
(-2.436873e-05 -7.624543e-06 5.533625e-29)
(-2.502085e-05 -1.016399e-05 7.203217e-27)
(-2.993083e-05 -1.307098e-05 -1.001126e-26)
(-4.538413e-05 -2.440842e-05 -1.208565e-26)
(-8.175519e-05 -5.201931e-05 1.252366e-26)
(-2.376087e-05 -2.627967e-06 2.657842e-27)
(-2.108223e-05 -7.41503e-06 0)
(-1.977012e-05 -1.202159e-05 1.933409e-28)
(-2.112636e-05 -1.830911e-05 3.049703e-28)
(-3.426465e-05 -3.434847e-05 5.783786e-27)
(-7.231427e-05 -6.856291e-05 1.309411e-26)
(-0.0001251668 -0.0001148516 2.977954e-26)
(-1.717162e-05 -3.482958e-06 0)
(-1.464163e-05 -9.756629e-06 1.563004e-28)
(-1.355873e-05 -1.669652e-05 2.716535e-27)
(-1.9774e-05 -3.416526e-05 3.419327e-27)
(-4.956133e-05 -7.62596e-05 6.765689e-27)
(-0.0001021294 -0.0001354198 2.606091e-26)
(-0.000167853 -0.0002201865 3.234498e-26)
(-8.742325e-06 -4.081435e-06 0)
(-6.296548e-06 -1.207503e-05 1.354552e-31)
(-7.640008e-06 -2.615903e-05 3.562122e-27)
(-2.710671e-05 -6.547879e-05 9.478409e-27)
(-7.057996e-05 -0.0001346563 2.868078e-27)
(-0.0001324278 -0.0002339166 4.333896e-27)
(-0.0002106432 -0.0004329057 -1.800594e-28)
(6.967609e-07 -4.133624e-06 1.209494e-28)
(2.993208e-06 -1.553103e-05 -9.799336e-29)
(-5.408194e-06 -4.685519e-05 5.139283e-32)
(-3.846092e-05 -0.0001138672 9.641005e-27)
(-8.972276e-05 -0.0002075461 7.516471e-27)
(-0.0001676621 -0.0004030467 1.030554e-27)
(-0.0002256741 -0.0006459756 -1.814961e-26)
(1.008222e-05 -3.983911e-06 -9.027738e-28)
(9.783017e-06 -2.393704e-05 1.378047e-27)
(-8.232041e-06 -7.898174e-05 -1.575479e-27)
(-4.735189e-05 -0.0001683264 3.131927e-27)
(-0.0001121052 -0.0003357354 7.478566e-27)
(-0.0001844878 -0.0005853363 2.830051e-27)
(-0.0002408113 -0.0008331137 1.409347e-26)
(1.804209e-05 -5.863877e-06 -1.759959e-27)
(1.138621e-05 -3.9675e-05 1.351382e-27)
(-1.388119e-05 -0.0001141568 4.705919e-27)
(-5.649925e-05 -0.0002423636 3.222546e-27)
(-0.0001226555 -0.0004767919 6.094381e-27)
(-0.0001891669 -0.0007399402 5.502939e-27)
(-0.0002617087 -0.001012533 1.152822e-26)
(2.399777e-05 -1.160939e-05 -2.330177e-27)
(9.629013e-06 -6.111929e-05 8.652354e-28)
(-2.060892e-05 -0.0001557353 3.62991e-27)
(-6.66518e-05 -0.0003404909 5.685933e-27)
(-0.0001276142 -0.0006057568 5.424422e-27)
(-0.0001968291 -0.0008804891 1.345817e-26)
(-0.0002823549 -0.001180291 8.795336e-27)
(2.713236e-05 -2.093587e-05 9.72397e-32)
(7.994645e-06 -8.658297e-05 9.529384e-32)
(-2.396676e-05 -0.0002074097 2.095674e-27)
(-7.164394e-05 -0.0004401359 7.111068e-30)
(-0.0001293705 -0.0007178437 -4.725392e-27)
(-0.0002020694 -0.001012581 -5.607146e-27)
(-0.0002936956 -0.001340721 -1.210576e-26)
(2.464937e-05 -2.983202e-05 -3.115991e-28)
(5.454725e-06 -0.0001109866 -9.447518e-28)
(-2.512804e-05 -0.0002681222 -6.551418e-29)
(-7.065385e-05 -0.0005265684 7.659157e-27)
(-0.0001252005 -0.0008137083 -8.252499e-27)
(-0.0001965953 -0.001129407 -6.29361e-26)
(-0.0002899562 -0.001480611 -3.681015e-26)
(1.480934e-05 -3.681603e-05 1.947243e-28)
(-1.648138e-06 -0.0001319538 5.041044e-28)
(-2.761147e-05 -0.0003169389 2.595488e-27)
(-6.636105e-05 -0.0005875939 3.867325e-27)
(-0.0001149702 -0.0008823525 3.236181e-27)
(-0.0001800758 -0.001215748 -9.581512e-28)
(-0.0002679942 -0.001595594 -1.855038e-26)
(8.895661e-07 -4.264318e-05 -1.111408e-28)
(-1.284799e-05 -0.0001525383 -6.008718e-28)
(-3.55702e-05 -0.0003578479 -1.946598e-28)
(-6.658468e-05 -0.0006342785 -9.841324e-28)
(-0.000106573 -0.000935607 -1.556711e-27)
(-0.000161675 -0.001280129 -8.56675e-27)
(-0.0002369702 -0.001675799 4.708178e-27)
(-1.349491e-05 -4.722064e-05 3.884176e-31)
(-2.459111e-05 -0.0001697839 -5.000487e-28)
(-4.323399e-05 -0.0003884212 8.440501e-30)
(-6.746787e-05 -0.0006676568 2.329045e-30)
(-9.764121e-05 -0.0009738079 -2.31866e-27)
(-0.0001385327 -0.001325713 -8.854204e-27)
(-0.0001940614 -0.001734144 -1.114927e-26)
(-2.950792e-05 -5.051406e-05 -2.566568e-28)
(-3.7135e-05 -0.0001808275 1.393046e-27)
(-5.121953e-05 -0.0004058899 -7.108078e-30)
(-6.857957e-05 -0.0006858996 -1.049522e-27)
(-8.690521e-05 -0.0009938733 3.677556e-27)
(-0.0001080312 -0.001348176 -1.045007e-27)
(-0.0001336191 -0.00176159 -8.484091e-27)
(-4.553928e-05 -5.122682e-05 -1.37666e-27)
(-4.814154e-05 -0.0001821176 -5.600351e-28)
(-5.662231e-05 -0.0004075677 1.362387e-28)
(-6.67982e-05 -0.0006881916 -3.168156e-27)
(-7.278167e-05 -0.0009955911 3.626874e-27)
(-7.288185e-05 -0.001347872 9.892797e-28)
(-6.611911e-05 -0.001757035 -1.65688e-26)
(-5.743449e-05 -4.890995e-05 -1.423454e-27)
(-5.505585e-05 -0.0001730828 -2.673042e-27)
(-5.757378e-05 -0.0003927947 2.599475e-27)
(-6.086668e-05 -0.0006739661 6.448952e-27)
(-5.638047e-05 -0.0009791347 3.422281e-27)
(-3.953645e-05 -0.001326278 -1.002145e-27)
(-8.139303e-06 -0.001725029 1.120827e-27)
(-6.584205e-05 -4.528617e-05 8.737541e-32)
(-5.908587e-05 -0.0001578293 -6.003116e-27)
(-5.511567e-05 -0.0003641761 3.349657e-27)
(-5.132717e-05 -0.0006438108 3.828431e-27)
(-3.854563e-05 -0.0009447947 5.894161e-30)
(-1.037726e-05 -0.001284143 -2.691091e-27)
(3.506511e-05 -0.001669257 -1.253103e-26)
(-7.139347e-05 -4.052515e-05 2.193872e-28)
(-5.996845e-05 -0.0001398502 -2.540035e-27)
(-4.918872e-05 -0.0003245022 6.081413e-27)
(-3.569072e-05 -0.0005984885 9.636626e-30)
(-1.45168e-05 -0.0008936039 -6.757657e-27)
(2.239361e-05 -0.001221863 -2.434498e-31)
(7.69877e-05 -0.001590991 4.824327e-26)
(-7.022845e-05 -3.417728e-05 4.892733e-31)
(-5.376853e-05 -0.0001212335 -4.981485e-27)
(-3.301816e-05 -0.0002761258 -2.99468e-27)
(-8.709827e-06 -0.0005347856 -1.700549e-28)
(1.82758e-05 -0.000822933 1.753584e-26)
(5.911728e-05 -0.001133559 3.556627e-28)
(0.0001155837 -0.001476362 -4.148361e-26)
(-6.076466e-05 -2.498908e-05 -5.036401e-28)
(-4.266786e-05 -9.656766e-05 -4.039383e-27)
(-1.574439e-05 -0.0002146564 -5.451263e-27)
(1.535372e-05 -0.0004428955 8.27374e-28)
(4.691624e-05 -0.0007240306 8.486694e-30)
(8.839317e-05 -0.001016485 -1.250458e-26)
(0.0001432508 -0.00133844 -3.21899e-27)
(-4.680941e-05 -1.50982e-05 4.61034e-27)
(-3.302204e-05 -7.064891e-05 -3.010356e-27)
(-4.940782e-06 -0.0001664044 -3.448986e-27)
(3.009407e-05 -0.0003394307 -3.066695e-27)
(7.13845e-05 -0.0006040447 2.888433e-29)
(0.0001146142 -0.0008801133 2.41405e-27)
(0.0001706814 -0.001176995 5.973355e-27)
(-3.141441e-05 -9.293463e-06 3.038873e-27)
(-2.50335e-05 -4.843295e-05 -1.646691e-27)
(-8.442544e-08 -0.000126145 1.294336e-27)
(3.825551e-05 -0.0002437066 -1.057718e-29)
(9.297158e-05 -0.0004620018 8.186352e-27)
(0.0001448869 -0.000726302 7.808967e-27)
(0.0002000571 -0.000995139 -4.430784e-28)
(-1.527542e-05 -7.137558e-06 -1.367586e-27)
(-1.463815e-05 -3.23022e-05 -6.853695e-28)
(3.704343e-06 -8.913481e-05 9.377813e-28)
(4.324032e-05 -0.0001758855 -5.201005e-30)
(0.0001006713 -0.0003143629 1.84797e-26)
(0.0001706344 -0.0005498004 1.15795e-26)
(0.0002239812 -0.0007926918 -1.727578e-26)
(7.548008e-07 -6.737906e-06 2.657494e-28)
(-6.803756e-07 -2.28463e-05 8.585875e-28)
(8.663731e-06 -5.590344e-05 2.992749e-27)
(4.228891e-05 -0.0001218807 -1.614132e-27)
(9.28274e-05 -0.0002033785 1.692395e-26)
(0.0001656193 -0.0003568454 1.157905e-26)
(0.0002358446 -0.0005811404 -9.87398e-27)
(1.54906e-05 -6.086032e-06 0)
(1.401351e-05 -1.805123e-05 8.410071e-32)
(1.682788e-05 -3.482253e-05 -2.856814e-27)
(3.656195e-05 -7.260365e-05 -2.250219e-26)
(8.053582e-05 -0.0001386651 9.970938e-27)
(0.0001395767 -0.000211898 8.555325e-27)
(0.0002215445 -0.0003604642 4.236851e-26)
(2.791628e-05 -5.016487e-06 0)
(2.629691e-05 -1.423067e-05 -2.779062e-28)
(2.691417e-05 -2.390575e-05 -4.362896e-27)
(3.477787e-05 -4.211395e-05 -8.954096e-28)
(6.401648e-05 -7.931109e-05 3.060699e-27)
(0.0001172746 -0.0001338422 -4.917272e-26)
(0.0001781317 -0.0001860381 -3.804631e-26)
(3.745027e-05 -3.719313e-06 4.04217e-27)
(3.566806e-05 -1.064106e-05 0)
(3.59602e-05 -1.72455e-05 0)
(3.952708e-05 -2.490653e-05 5.506613e-27)
(5.405748e-05 -3.994409e-05 2.656788e-31)
(8.943324e-05 -6.863632e-05 -4.574022e-28)
(0.0001430333 -0.000109525 -6.689377e-26)
(4.410277e-05 -2.442231e-06 4.704563e-27)
(4.223093e-05 -6.895493e-06 -6.610328e-29)
(4.241927e-05 -1.106904e-05 -1.072122e-28)
(4.510922e-05 -1.468538e-05 -1.359371e-27)
(5.227642e-05 -1.817014e-05 -8.992011e-28)
(6.901235e-05 -2.738173e-05 1.888655e-26)
(0.0001041032 -4.61434e-05 -5.028362e-26)
(4.801025e-05 -1.253465e-06 0)
(4.606859e-05 -3.382583e-06 -5.278229e-27)
(4.603141e-05 -5.261919e-06 0)
(4.828797e-05 -6.28896e-06 -1.317742e-28)
(5.273421e-05 -6.231395e-06 -1.26741e-28)
(6.07136e-05 -5.486307e-06 2.748562e-28)
(7.770474e-05 -6.835232e-06 -1.882506e-26)
(4.946696e-05 -2.294077e-07 0)
(4.74627e-05 -3.363661e-07 5.340849e-27)
(4.718989e-05 -1.583749e-07 -5.642915e-27)
(4.86127e-05 7.147802e-07 0)
(5.182358e-05 2.679302e-06 7.162466e-29)
(5.695649e-05 6.291911e-06 -6.72352e-27)
(6.418758e-05 1.205663e-05 5.305681e-28)
(4.886325e-05 6.018019e-07 0)
(4.689663e-05 2.123091e-06 1.564206e-26)
(4.623312e-05 3.857728e-06 3.878775e-30)
(4.690559e-05 6.211922e-06 1.161676e-26)
(4.90213e-05 9.557844e-06 3.675844e-28)
(5.216817e-05 1.453311e-05 -6.472633e-27)
(5.586455e-05 2.197534e-05 2.643507e-27)
(4.669557e-05 1.216188e-06 -4.872857e-27)
(4.477054e-05 3.940675e-06 4.960307e-27)
(4.382902e-05 6.741053e-06 -3.015799e-31)
(4.389028e-05 1.005639e-05 1.030079e-26)
(4.480812e-05 1.422715e-05 0)
(4.632982e-05 1.962688e-05 0)
(4.834693e-05 2.708357e-05 1.014446e-26)
(4.341389e-05 1.621971e-06 -4.503503e-27)
(4.160019e-05 5.120343e-06 4.547918e-27)
(4.046025e-05 8.595915e-06 -4.569727e-27)
(4.000544e-05 1.239884e-05 -4.647371e-27)
(3.99757e-05 1.691364e-05 0)
(4.012879e-05 2.247353e-05 0)
(4.071842e-05 2.886681e-05 5.529018e-27)
(3.945306e-05 1.838728e-06 4.087102e-27)
(3.780364e-05 5.741321e-06 4.172013e-27)
(3.659003e-05 9.488008e-06 9.269176e-29)
(3.570957e-05 1.348728e-05 -3.918914e-27)
(3.502426e-05 1.791858e-05 -9.332103e-28)
(3.456674e-05 2.279165e-05 6.555758e-27)
(3.364799e-05 2.852441e-05 -3.191687e-27)
(3.520088e-05 1.896064e-06 3.643249e-27)
(3.376765e-05 5.887324e-06 2.956726e-29)
(3.252516e-05 9.682431e-06 -9.508046e-29)
(3.143231e-05 1.356194e-05 -1.320547e-28)
(3.041077e-05 1.76826e-05 0)
(2.942639e-05 2.197157e-05 3.545189e-27)
(2.802999e-05 2.660276e-05 -2.995556e-27)
(3.09452e-05 1.849816e-06 0)
(2.973644e-05 5.716321e-06 5.555504e-29)
(2.854501e-05 9.3644e-06 9.147275e-29)
(2.733515e-05 1.304579e-05 -6.713938e-27)
(2.627581e-05 1.6573e-05 -1.121091e-27)
(2.498849e-05 2.034323e-05 -4.908178e-27)
(2.358768e-05 2.401809e-05 -1.979854e-27)
(2.690395e-05 1.717066e-06 8.360947e-30)
(2.589962e-05 5.333129e-06 2.594759e-29)
(2.482585e-05 8.678573e-06 0)
(2.371458e-05 1.195803e-05 6.748023e-30)
(2.253276e-05 1.518167e-05 -2.353763e-27)
(2.133044e-05 1.829592e-05 -2.172596e-27)
(2.004388e-05 2.125668e-05 3.627286e-28)
(2.31908e-05 1.549588e-06 -2.371205e-27)
(2.237571e-05 4.843365e-06 2.371194e-27)
(2.141552e-05 7.892271e-06 -4.081233e-27)
(2.046398e-05 1.072618e-05 4.643603e-27)
(1.936115e-05 1.353406e-05 -1.844652e-27)
(1.829499e-05 1.614648e-05 0)
(1.718114e-05 1.857509e-05 -3.071951e-28)
(1.986225e-05 1.367332e-06 -2.035905e-27)
(1.91952e-05 4.320375e-06 1.949903e-27)
(1.84433e-05 6.944401e-06 -1.86737e-27)
(1.756831e-05 9.500064e-06 0)
(1.665838e-05 1.188133e-05 1.653505e-27)
(1.575135e-05 1.408677e-05 0)
(1.482912e-05 1.611413e-05 -1.33496e-27)
(1.694247e-05 1.177983e-06 0)
(1.644669e-05 3.754815e-06 0)
(1.580657e-05 6.084834e-06 3.198474e-27)
(1.509115e-05 8.282574e-06 0)
(1.434813e-05 1.032163e-05 2.785683e-27)
(1.360033e-05 1.22051e-05 1.264731e-27)
(1.285007e-05 1.393767e-05 -1.118572e-27)
(1.440545e-05 1.014602e-06 1.466325e-27)
(1.404898e-05 3.241676e-06 0)
(1.353551e-05 5.259061e-06 1.332383e-27)
(1.29644e-05 7.155017e-06 -1.307948e-27)
(1.236634e-05 8.911303e-06 1.178335e-27)
(1.176618e-05 1.052876e-05 2.139244e-27)
(1.116773e-05 1.200943e-05 9.47408e-28)
(1.224649e-05 8.516726e-07 1.243036e-27)
(1.196966e-05 2.794502e-06 1.200925e-27)
(1.157973e-05 4.521222e-06 0)
(1.113165e-05 6.155643e-06 -1.136699e-27)
(1.066089e-05 7.673389e-06 -6.469318e-29)
(1.019141e-05 9.072673e-06 1.894262e-27)
(9.729049e-06 1.035214e-05 2.312787e-28)
(1.039752e-05 7.155085e-07 1.056598e-27)
(1.019189e-05 2.394872e-06 1.024179e-27)
(9.895999e-06 3.877223e-06 -9.7924e-28)
(9.548853e-06 5.291448e-06 0)
(9.183296e-06 6.612724e-06 0)
(8.816742e-06 7.846846e-06 7.782029e-28)
(8.445836e-06 9.014915e-06 -1.184744e-27)
(8.819574e-06 5.981488e-07 8.958367e-28)
(8.668235e-06 2.052803e-06 8.696205e-28)
(8.4443e-06 3.327236e-06 -8.315667e-28)
(8.177444e-06 4.554254e-06 0)
(7.895229e-06 5.708474e-06 -4.727591e-29)
(7.609925e-06 6.792752e-06 -9.087442e-32)
(7.317407e-06 7.816446e-06 5.593129e-29)
(7.47061e-06 4.993892e-07 0)
(7.359402e-06 1.763875e-06 7.370734e-28)
(7.189511e-06 2.86294e-06 -7.065499e-28)
(6.984911e-06 3.931353e-06 0)
(6.767651e-06 4.943807e-06 6.625187e-28)
(6.546356e-06 5.902736e-06 9.080223e-29)
(6.312888e-06 6.816031e-06 4.786901e-29)
(6.313704e-06 4.169835e-07 -6.417867e-28)
(6.230707e-06 1.522487e-06 3.368439e-30)
(6.100935e-06 2.474048e-06 -5.928291e-28)
(5.94396e-06 3.408103e-06 1.488781e-29)
(5.777093e-06 4.299417e-06 1.731724e-29)
(5.605597e-06 5.150264e-06 4.856734e-28)
(5.419569e-06 5.965822e-06 0)
(5.316231e-06 3.487053e-07 -1.081514e-27)
(5.252314e-06 1.322046e-06 0)
(5.151917e-06 2.150062e-06 0)
(5.030735e-06 2.9713e-06 -4.923393e-28)
(4.900279e-06 3.76222e-06 -9.114217e-28)
(4.756866e-06 4.529715e-06 4.111761e-28)
(4.615391e-06 5.244853e-06 0)
(4.450582e-06 2.922229e-07 -4.531566e-28)
(4.399293e-06 1.15588e-06 2.588418e-30)
(4.32038e-06 1.880307e-06 4.345897e-30)
(4.226591e-06 2.605243e-06 1.188763e-29)
(4.126482e-06 3.305656e-06 -3.626998e-28)
(4.020128e-06 3.984651e-06 0)
(3.90218e-06 4.641476e-06 3.129557e-28)
(3.693654e-06 2.455858e-07 3.238069e-31)
(3.650649e-06 1.018188e-06 3.701471e-28)
(3.587694e-06 1.655544e-06 3.565695e-28)
(3.515067e-06 2.298613e-06 6.697094e-28)
(3.439114e-06 2.922426e-06 0)
(3.358174e-06 3.530188e-06 2.842212e-28)
(3.264772e-06 4.12105e-06 -2.942753e-31)
(3.026423e-06 2.070028e-07 3.089275e-28)
(2.988933e-06 9.040812e-07 6.026036e-28)
(2.938451e-06 1.468302e-06 5.820101e-28)
(2.883094e-06 2.041585e-06 2.840945e-28)
(2.827221e-06 2.599414e-06 1.104839e-29)
(2.767728e-06 3.143826e-06 2.328344e-28)
(2.698265e-06 3.674568e-06 -2.257943e-28)
(2.433104e-06 1.751959e-07 2.491572e-28)
(2.399557e-06 8.098215e-07 4.842046e-28)
(2.359042e-06 1.31312e-06 2.325669e-28)
(2.316811e-06 1.828503e-06 0)
(2.270705e-06 2.33411e-06 7.737418e-29)
(2.235548e-06 2.816074e-06 1.036644e-28)
(2.191533e-06 3.29088e-06 2.110123e-29)
(1.900677e-06 1.489729e-07 1.955484e-28)
(1.870387e-06 7.318104e-07 1.883904e-28)
(1.838937e-06 1.183608e-06 -9.07625e-30)
(1.810515e-06 1.647616e-06 -8.051877e-30)
(1.785938e-06 2.100186e-06 0)
(1.763655e-06 2.540221e-06 1.475919e-28)
(1.741269e-06 2.960205e-06 -9.501092e-30)
(1.418334e-06 1.274416e-07 1.466555e-28)
(1.39127e-06 6.675049e-07 1.406148e-28)
(1.36878e-06 1.076001e-06 -5.73769e-30)
(1.353734e-06 1.496494e-06 -3.805774e-30)
(1.345656e-06 1.905342e-06 0)
(1.340677e-06 2.301331e-06 1.001728e-28)
(1.340085e-06 2.675315e-06 -1.73242e-29)
(9.767754e-07 1.10017e-07 -2.102517e-31)
(9.535563e-07 6.152202e-07 1.94225e-28)
(9.408759e-07 9.877405e-07 -2.768201e-30)
(9.402782e-07 1.371333e-06 -3.662564e-30)
(9.499819e-07 1.741633e-06 0)
(9.65263e-07 2.097175e-06 0)
(9.861138e-07 2.429303e-06 0)
(5.678151e-07 9.634035e-08 0)
(5.496794e-07 5.738334e-07 5.68132e-29)
(5.486664e-07 9.166886e-07 0)
(5.644073e-07 1.269077e-06 -4.349495e-29)
(5.940408e-07 1.605539e-06 8.133041e-30)
(6.314544e-07 1.924588e-06 8.344922e-30)
(6.756324e-07 2.21809e-06 -3.287069e-29)
(1.837375e-07 8.631315e-08 2.11885e-29)
(1.722618e-07 5.431481e-07 0)
(1.844893e-07 8.631272e-07 -5.490454e-30)
(2.141583e-07 1.191119e-06 3.432269e-29)
(2.711242e-07 1.495446e-06 8.066442e-29)
(3.34655e-07 1.780047e-06 0)
(4.04825e-07 2.038233e-06 -1.554164e-29)
(-1.828969e-07 7.973427e-08 -1.614326e-29)
(-1.84922e-07 5.221938e-07 0)
(-1.54318e-07 8.236352e-07 -2.830028e-30)
(-9.683419e-08 1.127649e-06 -3.691771e-30)
(-1.732795e-08 1.407949e-06 -2.764483e-29)
(7.318868e-08 1.659983e-06 1.028972e-29)
(1.697786e-07 1.886623e-06 -6.788517e-30)
(-5.394221e-07 7.675773e-08 0)
(-5.281211e-07 5.111049e-07 -5.495316e-29)
(-4.740955e-07 7.985995e-07 -2.990221e-30)
(-3.873965e-07 1.082637e-06 4.810028e-29)
(-2.781554e-07 1.337705e-06 -4.117816e-29)
(-1.575374e-07 1.560508e-06 3.427793e-29)
(-3.409821e-08 1.757927e-06 -1.020048e-31)
(-8.937011e-07 7.772471e-08 0)
(-8.629441e-07 5.105854e-07 -8.822223e-29)
(-7.773521e-07 7.881124e-07 8.340708e-29)
(-6.535721e-07 1.05294e-06 7.323427e-29)
(-5.080504e-07 1.28132e-06 -7.118163e-29)
(-3.564219e-07 1.473755e-06 -9.397388e-30)
(-2.087342e-07 1.641578e-06 4.603816e-29)
(-1.254694e-06 8.336883e-08 0)
(-1.19498e-06 5.216797e-07 0)
(-1.065903e-06 7.916775e-07 1.156451e-28)
(-8.943208e-07 1.035635e-06 -1.053748e-28)
(-7.054151e-07 1.233243e-06 -1.345067e-31)
(-5.208779e-07 1.390503e-06 0)
(-3.523664e-07 1.524002e-06 0)
(-1.633024e-06 9.45676e-08 -1.652055e-28)
(-1.529416e-06 5.456113e-07 1.604248e-28)
(-1.33907e-06 8.084345e-07 7.803831e-29)
(-1.104879e-06 1.026343e-06 -1.274722e-28)
(-8.639643e-07 1.185395e-06 1.438433e-31)
(-6.445669e-07 1.299345e-06 -1.123076e-29)
(-4.590104e-07 1.390605e-06 1.470119e-33)
(-2.042112e-06 1.126175e-07 -1.856429e-32)
(-1.87023e-06 5.8374e-07 1.997541e-28)