/*--------------------------------*- C++ -*----------------------------------*\
| =========                 |                                                 |
| \\      /  F ield         | OpenFOAM: The Open Source CFD Toolbox           |
|  \\    /   O peration     | Version:  2206                                  |
|   \\  /    A nd           | Website:  www.openfoam.com                      |
|    \\/     M anipulation  |                                                 |
\*---------------------------------------------------------------------------*/
FoamFile
{
    version     2.0;
    format      ascii;
    arch        "LSB;label=32;scalar=64";
    class       volVectorField;
    location    "1.4";
    object      U.a;
}
// * * * * * * * * * * * * * * * * * * * * * * * * * * * * * * * * * * * * * //

dimensions      [0 1 -1 0 0 0 0];

internalField   nonuniform List<vector> 
13078
(
(1.076542e-06 -5.133392e-05 5.711247e-28)
(8.962662e-09 -3.057513e-05 1.581457e-33)
(-7.51535e-08 -2.028258e-05 -2.729671e-29)
(-4.868836e-08 -1.37577e-05 0)
(-4.105877e-08 -9.99821e-06 -1.154834e-29)
(-3.672383e-08 -7.522453e-06 -1.157595e-29)
(-3.268474e-08 -5.689401e-06 -1.158879e-29)
(-2.028258e-05 -2.462666e-05 0)
(-1.099751e-05 -2.235738e-05 -8.167932e-33)
(-4.186834e-06 -1.664212e-05 0)
(-1.915851e-06 -1.239332e-05 0)
(-9.996543e-07 -9.419355e-06 4.137862e-34)
(-5.803254e-07 -7.239256e-06 2.679919e-34)
(-3.668984e-07 -5.534106e-06 6.811286e-34)
(-7.793053e-06 -7.3447e-06 -2.827446e-31)
(-6.861423e-06 -1.158543e-05 5.30403e-31)
(-4.195673e-06 -1.143019e-05 1.171583e-29)
(-2.44712e-06 -9.797066e-06 2.317121e-29)
(-1.472092e-06 -8.037312e-06 1.156906e-29)
(-9.262646e-07 -6.453255e-06 0)
(-6.122279e-07 -5.057964e-06 -6.596461e-35)
(-2.416174e-06 -3.037117e-06 -4.082868e-31)
(-3.529258e-06 -6.328016e-06 1.220983e-30)
(-2.992759e-06 -7.470834e-06 2.575887e-30)
(-2.176206e-06 -7.27427e-06 1.562956e-30)
(-1.504803e-06 -6.456322e-06 -3.914896e-34)
(-1.040739e-06 -5.442979e-06 0)
(-7.341455e-07 -4.393388e-06 -7.2028e-34)
(-8.786422e-07 -1.68174e-06 -2.953005e-31)
(-1.804669e-06 -3.739899e-06 -4.191089e-31)
(-1.922239e-06 -4.92827e-06 1.147868e-30)
(-1.658199e-06 -5.25861e-06 2.197455e-31)
(-1.308549e-06 -5.014582e-06 -1.402845e-29)
(-9.928482e-07 -4.426308e-06 -2.149326e-35)
(-7.510175e-07 -3.668697e-06 1.16017e-29)
(-3.687584e-07 -1.120148e-06 0)
(-9.525949e-07 -2.417109e-06 7.407627e-31)
(-1.196051e-06 -3.371984e-06 -7.466022e-31)
(-1.17864e-06 -3.814211e-06 8.6649e-31)
(-1.037528e-06 -3.822294e-06 1.493676e-30)
(-8.637611e-07 -3.513067e-06 -1.171879e-29)
(-7.007561e-07 -2.972045e-06 -2.324558e-29)
(-1.743576e-07 -8.479319e-07 0)
(-5.229916e-07 -1.695711e-06 8.051063e-31)
(-7.386675e-07 -2.410124e-06 -1.108925e-29)
(-8.091697e-07 -2.814962e-06 -1.19642e-29)
(-7.830984e-07 -2.908274e-06 2.358382e-30)
(-7.079176e-07 -2.733189e-06 1.476947e-30)
(-6.184825e-07 -2.343889e-06 0)
(-8.966305e-08 -6.980457e-07 -1.369809e-30)
(-2.982742e-07 -1.273867e-06 8.261439e-31)
(-4.618736e-07 -1.80062e-06 8.51825e-31)
(-5.528316e-07 -2.129876e-06 0)
(-5.78757e-07 -2.228341e-06 1.855029e-30)
(-5.628329e-07 -2.104534e-06 1.479592e-30)
(-5.269805e-07 -1.789463e-06 1.476084e-30)
(-4.793737e-08 -6.073295e-07 3.231644e-32)
(-1.742669e-07 -1.010646e-06 -1.761822e-30)
(-2.912881e-07 -1.403119e-06 5.967034e-31)
(-3.766884e-07 -1.652146e-06 1.500294e-30)
(-4.246147e-07 -1.72259e-06 5.242745e-30)
(-4.428511e-07 -1.608063e-06 1.479772e-30)
(-4.431191e-07 -1.322278e-06 0)
(-2.554265e-08 -5.48257e-07 1.463036e-30)
(-1.02829e-07 -8.365097e-07 -1.790367e-30)
(-1.853946e-07 -1.131285e-06 -8.958228e-31)
(-2.583161e-07 -1.310095e-06 2.430278e-30)
(-3.132171e-07 -1.34187e-06 -3.848334e-32)
(-3.502532e-07 -1.215096e-06 0)
(-3.74494e-07 -9.340352e-07 0)
(-1.27218e-08 -5.074001e-07 0)
(-6.022005e-08 -7.150931e-07 0)
(-1.187858e-07 -9.372277e-07 -1.889574e-30)
(-1.795182e-07 -1.05758e-06 2.443784e-30)
(-2.351229e-07 -1.04945e-06 3.988712e-32)
(-2.824946e-07 -9.003917e-07 0)
(-3.227698e-07 -6.098395e-07 0)
(-5.113784e-09 -4.777158e-07 0)
(-3.404978e-08 -6.262468e-07 1.960218e-30)
(-7.643249e-08 -7.926108e-07 -1.90594e-30)
(-1.276231e-07 -8.646656e-07 -4.061033e-30)
(-1.820281e-07 -8.1894e-07 5.123525e-31)
(-2.35508e-07 -6.436317e-07 0)
(-2.871023e-07 -3.359286e-07 1.053424e-30)
(-5.131046e-10 -4.548895e-07 0)
(-1.765308e-08 -5.579752e-07 4.996806e-31)
(-4.944592e-08 -6.802201e-07 -1.481015e-30)
(-9.412545e-08 -7.118155e-07 -2.571828e-30)
(-1.475582e-07 -6.31715e-07 2.093048e-30)
(-2.053438e-07 -4.292378e-07 -1.998233e-30)
(-2.657817e-07 -1.005685e-07 3.836013e-32)
(2.317623e-09 -4.365222e-07 1.709986e-30)
(-7.360407e-09 -5.03094e-07 0)
(-3.235774e-08 -5.890299e-07 -1.480238e-30)
(-7.325033e-08 -5.859845e-07 -1.501518e-30)
(-1.269385e-07 -4.747403e-07 4.288369e-30)
(-1.88575e-07 -2.454334e-07 -2.004917e-30)
(-2.568902e-07 1.058448e-07 1.949414e-30)
(4.029965e-09 -4.210087e-07 1.720204e-30)
(-9.255783e-10 -4.569235e-07 0)
(-2.131642e-08 -5.118869e-07 -2.954734e-30)
(-5.760975e-08 -4.782317e-07 1.879619e-29)
(-1.119604e-07 -3.390861e-07 2.623275e-29)
(-1.816166e-07 -8.325443e-08 0)
(-2.587657e-07 2.911311e-07 -2.034953e-30)
(5.011397e-09 -4.073094e-07 0)
(2.558978e-09 -4.163229e-07 2.207967e-30)
(-1.668752e-08 -4.438044e-07 0)
(-5.544898e-08 -3.830816e-07 8.296032e-31)
(-1.125329e-07 -2.183936e-07 3.012285e-30)
(-1.860108e-07 6.384667e-08 2.968573e-30)
(-2.71033e-07 4.615633e-07 9.13149e-31)
(5.571888e-09 -3.946355e-07 0)
(4.381119e-09 -3.789953e-07 4.489742e-30)
(-1.460504e-08 -3.811787e-07 -1.471656e-30)
(-5.486886e-08 -2.950734e-07 -1.477997e-30)
(-1.16881e-07 -1.051407e-07 0)
(-1.97923e-07 2.019326e-07 0)
(-2.924702e-07 6.227628e-07 0)
(5.811335e-09 -3.825018e-07 2.505962e-30)
(4.881955e-09 -3.433118e-07 1.545249e-30)
(-1.509458e-08 -3.212213e-07 -2.94088e-30)
(-5.851918e-08 -2.106363e-07 -1.476877e-30)
(-1.26987e-07 4.127819e-09 0)
(-2.172807e-07 3.356962e-07 -6.520659e-31)
(-3.228512e-07 7.796656e-07 -5.898977e-30)
(5.832324e-09 -3.704157e-07 2.512288e-30)
(4.435064e-09 -3.078655e-07 1.671167e-30)
(-1.761286e-08 -2.615824e-07 -4.407373e-30)
(-6.562827e-08 -1.264871e-07 -2.951338e-30)
(-1.422944e-07 1.131232e-07 0)
(-2.439152e-07 4.692522e-07 2.326128e-30)
(-3.622168e-07 9.369698e-07 -2.948627e-30)
(5.741272e-09 -3.579713e-07 2.034497e-30)
(3.401712e-09 -2.713896e-07 4.892181e-30)
(-2.155025e-08 -2.001922e-07 2.394381e-30)
(-7.476619e-08 -3.983778e-08 0)
(-1.570387e-07 2.242415e-07 2.395301e-29)
(-2.708504e-07 6.041037e-07 3.007302e-29)
(-4.095457e-07 1.099182e-06 5.913602e-30)
(5.699677e-09 -3.446736e-07 1.458505e-30)
(2.037773e-09 -2.325543e-07 5.771143e-30)
(-2.699153e-08 -1.349519e-07 6.332686e-30)
(-8.864268e-08 5.213818e-08 5.31231e-30)
(-1.854372e-07 3.409142e-07 2.956009e-30)
(-3.14668e-07 7.4672e-07 3.4446e-30)
(-4.695742e-07 1.271059e-06 -5.383369e-30)
(5.891157e-09 -3.30205e-07 0)
(9.671458e-10 -1.901781e-07 4.027442e-30)
(-3.250134e-08 -6.371487e-08 3.937957e-30)
(-1.02943e-07 1.524871e-07 4.838857e-30)
(-2.129539e-07 4.70455e-07 0)
(-3.615199e-07 9.056055e-07 3.450155e-30)
(-5.390979e-07 1.458463e-06 6.026183e-32)
(6.617664e-09 -3.141572e-07 -2.230636e-30)
(1.146933e-09 -1.431394e-07 0)
(-3.686332e-08 1.537756e-08 0)
(-1.171014e-07 2.640326e-07 2.858402e-30)
(-2.425679e-07 6.145511e-07 4.272698e-31)
(-4.135138e-07 1.082159e-06 0)
(-6.18392e-07 1.66629e-06 2.49914e-30)
(8.411525e-09 -2.961526e-07 -4.55015e-30)
(3.919826e-09 -9.033728e-08 0)
(-3.802275e-08 1.041599e-07 0)
(-1.286622e-07 3.893043e-07 -5.454456e-30)
(-2.707984e-07 7.765574e-07 -7.964524e-30)
(-4.610666e-07 1.277587e-06 2.636666e-30)
(-6.965505e-07 1.894698e-06 0)
(1.196374e-08 -2.759277e-07 -2.323731e-30)
(1.129066e-08 -3.083506e-08 1.459848e-30)
(-3.310943e-08 2.043486e-07 -1.338952e-30)
(-1.34692e-07 5.308782e-07 2.914261e-30)
(-2.977889e-07 9.597464e-07 2.980759e-30)
(-5.197828e-07 1.497202e-06 2.601469e-30)
(-7.93009e-07 2.154039e-06 0)
(1.841185e-08 -2.532327e-07 0)
(2.643521e-08 3.599865e-08 3.014623e-30)
(-1.710644e-08 3.17143e-07 -2.820973e-30)
(-1.282232e-07 6.907497e-07 0)
(-3.125244e-07 1.167219e-06 8.412316e-30)
(-5.670171e-07 1.751972e-06 1.173669e-29)
(-8.860395e-07 2.455996e-06 6.052697e-30)
(2.919524e-08 -2.280424e-07 2.580792e-30)
(5.357566e-08 1.103249e-07 3.051931e-30)
(1.671569e-08 4.429502e-07 -3.014866e-30)
(-1.00773e-07 8.696902e-07 0)
(-3.062798e-07 1.400447e-06 -5.80696e-30)
(-5.969891e-07 2.039815e-06 -1.793134e-35)
(-9.693581e-07 2.798121e-06 6.05035e-30)
(4.628523e-08 -2.003631e-07 2.622662e-30)
(9.853939e-08 1.916624e-07 3.299675e-30)
(7.743016e-08 5.810428e-07 -3.057956e-30)
(-4.049748e-08 1.066985e-06 0)
(-2.651243e-07 1.659122e-06 0)
(-5.935772e-07 2.360935e-06 2.740822e-30)
(-1.016722e-06 3.175421e-06 -5.080404e-29)
(7.191215e-08 -1.706081e-07 1.643922e-30)
(1.684938e-07 2.784717e-07 1.917498e-30)
(1.770126e-07 7.2893e-07 0)
(6.852463e-08 1.279667e-06 -8.923434e-30)
(-1.706655e-07 1.94018e-06 -5.777634e-30)
(-5.40279e-07 2.712702e-06 1.135546e-29)
(-1.029368e-06 3.590375e-06 1.759589e-29)
(1.10777e-07 -1.38754e-07 2.860634e-30)
(2.753526e-07 3.670058e-07 0)
(3.317158e-07 8.815869e-07 6.264151e-31)
(2.475089e-07 1.501449e-06 -6.089989e-30)
(3.776819e-09 2.236438e-06 3.121923e-30)
(-4.024362e-07 3.088675e-06 5.799199e-30)
(-9.608713e-07 4.05097e-06 2.826364e-30)
(1.628178e-07 -1.098885e-07 0)
(4.248144e-07 4.515384e-07 0)
(5.583486e-07 1.03025e-06 7.402956e-30)
(5.214987e-07 1.720909e-06 0)
(2.895978e-07 2.534281e-06 6.479952e-30)
(-1.440048e-07 3.473301e-06 2.992015e-30)
(-7.691246e-07 4.53154e-06 -2.889359e-30)
(2.377235e-07 -8.519793e-08 6.890392e-31)
(6.375208e-07 5.235624e-07 -6.632799e-30)
(8.855134e-07 1.159387e-06 -5.387891e-30)
(9.220829e-07 1.920984e-06 0)
(7.241618e-07 2.812903e-06 3.387846e-30)
(2.778846e-07 3.841542e-06 0)
(-4.101503e-07 5.002417e-06 -1.436314e-29)
(3.366058e-07 -6.787247e-08 3.082302e-30)
(9.173792e-07 5.723459e-07 -3.87873e-30)
(1.328623e-06 1.252089e-06 -1.358121e-29)
(1.491362e-06 2.071737e-06 -4.610152e-30)
(1.351801e-06 3.042088e-06 9.558119e-30)
(9.156034e-07 4.157725e-06 5.690136e-30)
(1.780797e-07 5.424838e-06 -5.687881e-30)
(4.652044e-07 -6.201779e-08 1.119228e-30)
(1.286242e-06 5.922861e-07 1.412571e-30)
(1.906741e-06 1.291666e-06 1.607236e-30)
(2.242208e-06 2.150744e-06 -1.669883e-29)
(2.213911e-06 3.181042e-06 -7.413544e-30)
(1.825e-06 4.371132e-06 1.132861e-29)
(1.064255e-06 5.737924e-06 2.261485e-29)
(6.269893e-07 -7.181128e-08 -1.115318e-30)
(1.754332e-06 5.669276e-07 -1.406644e-30)
(2.651318e-06 1.262674e-06 -9.996489e-30)
(3.222894e-06 2.123612e-06 -5.642256e-29)
(3.378909e-06 3.167568e-06 -5.812065e-29)
(3.067637e-06 4.414539e-06 -1.572444e-29)
(2.320092e-06 5.859652e-06 0)
(8.226198e-07 -1.018917e-07 0)
(2.32356e-06 4.819071e-07 0)
(3.563448e-06 1.134125e-06 -4.621447e-30)
(4.434856e-06 1.944809e-06 6.559333e-30)
(4.846725e-06 2.952341e-06 5.299813e-29)
(4.722662e-06 4.186624e-06 4.158298e-29)
(4.01436e-06 5.685358e-06 0)
(1.048881e-06 -1.564818e-07 -2.214707e-30)
(2.986515e-06 3.243025e-07 2.793288e-30)
(4.634977e-06 8.839509e-07 5.560232e-30)
(5.871935e-06 1.601202e-06 0)
(6.606365e-06 2.492189e-06 -1.004736e-29)
(6.72985e-06 3.640299e-06 -1.160261e-29)
(6.177582e-06 5.096368e-06 -2.249399e-29)
(1.296877e-06 -2.390343e-07 6.828034e-30)
(3.718252e-06 8.333941e-08 2.784701e-30)
(5.826408e-06 4.93638e-07 5.606799e-30)
(7.484713e-06 1.054622e-06 0)
(8.596382e-06 1.770862e-06 5.68403e-30)
(9.072246e-06 2.709174e-06 -8.601207e-29)
(8.860207e-06 3.931864e-06 -1.147947e-28)
(1.549575e-06 -3.523622e-07 6.996481e-30)
(4.470511e-06 -2.509879e-07 8.978692e-30)
(7.059739e-06 -5.24363e-08 5.905765e-30)
(9.164121e-06 2.834872e-07 -1.101358e-29)
(1.068539e-05 7.432418e-07 -2.194313e-29)
(1.15725e-05 1.343074e-06 -3.954056e-29)
(1.17615e-05 2.205833e-06 -4.607118e-29)
(1.778441e-06 -4.987578e-07 0)
(5.166071e-06 -6.911343e-07 -1.319346e-29)
(8.219296e-06 -7.694175e-07 -6.588934e-30)
(1.075669e-05 -7.225726e-07 5.508548e-30)
(1.26801e-05 -5.879985e-07 -4.512036e-30)
(1.395342e-05 -3.766838e-07 -1.100479e-29)
(1.457457e-05 -2.966929e-08 0)
(1.949279e-06 -6.858358e-07 -4.593929e-30)
(5.723927e-06 -1.248026e-06 -3.651824e-29)
(9.171129e-06 -1.670158e-06 -2.937499e-29)
(1.209741e-05 -1.959379e-06 -1.411822e-29)
(1.437198e-05 -2.204111e-06 -4.231321e-30)
(1.592918e-05 -2.459396e-06 -1.802592e-29)
(1.67381e-05 -2.762559e-06 6.99711e-30)
(2.058461e-06 -9.194495e-07 -6.642975e-30)
(6.075538e-06 -1.915696e-06 -2.749513e-30)
(9.832545e-06 -2.728177e-06 0)
(1.306261e-05 -3.410183e-06 3.350046e-30)
(1.556965e-05 -4.104091e-06 -1.52401e-29)
(1.715215e-05 -5.001198e-06 2.929489e-30)
(1.773801e-05 -6.118766e-06 5.049621e-29)
(2.079323e-06 -1.191837e-06 4.497161e-30)
(6.242094e-06 -2.66281e-06 5.458246e-30)
(1.016571e-05 -3.865703e-06 5.533994e-30)
(1.354071e-05 -5.028907e-06 -2.822501e-29)
(1.59443e-05 -6.449459e-06 -3.939481e-29)
(1.713569e-05 -8.312136e-06 4.271181e-30)
(1.700955e-05 -1.092381e-05 4.214287e-29)
(2.005138e-06 -1.464015e-06 4.174307e-30)
(6.188408e-06 -3.418195e-06 0)
(1.01215e-05 -5.087235e-06 1.098039e-29)
(1.318876e-05 -6.97826e-06 1.122789e-29)
(1.498795e-05 -9.491362e-06 9.350813e-29)
(1.526004e-05 -1.303063e-05 1.477552e-28)
(1.305029e-05 -2.05528e-05 1.05095e-28)
(1.831332e-06 -1.696633e-06 0)
(5.81283e-06 -4.176801e-06 1.097641e-29)
(9.346226e-06 -6.62537e-06 1.602906e-29)
(1.159657e-05 -9.652929e-06 6.106195e-30)
(1.219795e-05 -1.37602e-05 9.616839e-30)
(9.994894e-06 -2.214454e-05 8.279608e-29)
(-2.159355e-05 -9.806153e-05 5.380794e-28)
(1.536155e-06 -1.90136e-06 0)
(4.940358e-06 -5.11868e-06 1.354552e-31)
(7.453023e-06 -8.821117e-06 4.448091e-29)
(8.371809e-06 -1.352107e-05 6.216006e-29)
(6.099537e-06 -2.290145e-05 -4.368712e-29)
(-2.435374e-05 -8.913623e-05 -3.083991e-28)
(-0.0001089118 -0.0003184393 -1.800594e-28)
(1.110586e-06 -2.188879e-06 4.212048e-30)
(3.414339e-06 -6.428547e-06 3.75759e-32)
(4.429746e-06 -1.177854e-05 5.139283e-32)
(2.769164e-06 -2.134699e-05 1.204915e-28)
(-1.742987e-05 -6.848861e-05 2.882311e-28)
(-0.000101253 -0.0002712627 -1.126e-27)
(-0.0001798251 -0.0005484221 -3.250595e-27)
(5.573027e-07 -2.66121e-06 1.517902e-30)
(1.361687e-06 -8.233621e-06 -4.731377e-30)
(2.253898e-07 -1.750678e-05 -2.102059e-29)
(-1.103662e-05 -4.841533e-05 7.910666e-29)
(-7.378078e-05 -0.0002025333 7.318649e-28)
(-0.000169489 -0.0004797469 3.859342e-28)
(-0.0002275524 -0.0007339401 1.804132e-27)
(-4.497781e-08 -3.29356e-06 1.204372e-30)
(-8.587057e-07 -1.127642e-05 4.466678e-30)
(-5.946189e-06 -3.021417e-05 8.183471e-29)
(-3.887749e-05 -0.0001222102 1.911563e-28)
(-0.0001258575 -0.0003699722 7.36847e-28)
(-0.0002074872 -0.0006449683 7.741888e-28)
(-0.0002618138 -0.0008881694 1.742052e-27)
(-5.59103e-07 -3.946606e-06 3.008741e-30)
(-3.181553e-06 -1.623942e-05 1.76419e-29)
(-1.600469e-05 -6.205292e-05 1.40341e-28)
(-7.017449e-05 -0.0002382492 5.47574e-28)
(-0.0001540296 -0.0005203128 1.07039e-27)
(-0.0002235192 -0.0007781336 1.32805e-27)
(-0.0002834687 -0.001025431 8.303478e-28)
(-9.167664e-07 -4.735067e-06 9.72397e-32)
(-5.648049e-06 -2.470488e-05 9.529384e-32)
(-2.799492e-05 -0.0001151753 1.097429e-28)
(-9.023652e-05 -0.0003596114 5.84408e-30)
(-0.0001603007 -0.0006414842 -2.773555e-28)
(-0.0002214615 -0.0008932557 -7.39239e-28)
(-0.0002869058 -0.001157839 -9.195601e-28)
(-1.009812e-06 -5.40884e-06 -5.188241e-30)
(-7.939555e-06 -3.859338e-05 -3.351833e-29)
(-3.763735e-05 -0.0001829503 -6.551418e-29)
(-9.33515e-05 -0.0004588957 1.010702e-27)
(-0.0001480128 -0.0007311471 -1.141306e-27)
(-0.0002004535 -0.0009852526 -5.228695e-27)
(-0.0002644218 -0.001268124 -2.420176e-27)
(-9.451382e-07 -6.385407e-06 3.196685e-30)
(-8.921244e-06 -5.540217e-05 2.229806e-29)
(-3.789777e-05 -0.0002370156 2.115184e-28)
(-8.201217e-05 -0.0005209181 5.449065e-28)
(-0.0001242122 -0.0007855769 2.552263e-28)
(-0.0001681193 -0.001042047 -4.048178e-29)
(-0.0002270814 -0.001343986 -1.181933e-27)
(-8.950992e-07 -7.968995e-06 -1.916282e-30)
(-8.992845e-06 -7.340965e-05 -2.017358e-29)
(-3.46329e-05 -0.0002822461 -1.648778e-29)
(-6.941994e-05 -0.0005658398 -1.291108e-28)
(-0.0001021329 -0.0008225423 -1.361659e-28)
(-0.0001385978 -0.001078218 -4.478598e-28)
(-0.0001899567 -0.001390333 4.080484e-28)
(-8.512252e-07 -9.643631e-06 3.884176e-31)
(-8.168503e-06 -8.936656e-05 -2.119416e-30)
(-2.878209e-05 -0.0003159227 8.440501e-30)
(-5.484547e-05 -0.0005965584 2.329045e-30)
(-7.951022e-05 -0.0008471099 -2.613705e-28)
(-0.0001083331 -0.001103108 -4.416607e-28)
(-0.0001502051 -0.001427281 -6.042543e-28)
(-7.028432e-07 -1.069699e-05 -5.423174e-30)
(-6.077217e-06 -9.887992e-05 3.80833e-29)
(-1.992509e-05 -0.0003343184 -1.162198e-31)
(-3.701615e-05 -0.0006125857 -1.303921e-28)
(-5.326515e-05 -0.0008598802 3.04448e-28)
(-7.130512e-05 -0.001116507 3.356698e-29)
(-9.514393e-05 -0.001449006 -6.05916e-28)
(-4.079441e-07 -1.057438e-05 -6.425737e-30)
(-2.823659e-06 -9.819745e-05 -3.274436e-29)
(-8.444251e-06 -0.0003338218 -1.052102e-28)
(-1.613256e-05 -0.0006136534 -3.874366e-28)
(-2.36968e-05 -0.0008626262 3.038878e-28)
(-2.974048e-05 -0.001120408 4.025692e-29)
(-3.233983e-05 -0.00145245 -1.261257e-27)
(-1.161404e-07 -9.33116e-06 -1.324096e-30)
(4.292622e-07 -8.734085e-05 -1.222399e-29)
(3.141712e-06 -0.0003138964 1.308783e-28)
(5.231561e-06 -0.0005987692 4.30385e-28)
(6.309127e-06 -0.0008541723 3.001371e-28)
(1.070667e-05 -0.001114223 5.174016e-29)
(2.402325e-05 -0.001439843 4.349722e-29)
(1.406066e-07 -7.561782e-06 8.737541e-32)
(3.035044e-06 -6.991903e-05 -2.391625e-29)
(1.359078e-05 -0.0002768149 2.498841e-29)
(2.623196e-05 -0.0005660066 3.782433e-29)
(3.611784e-05 -0.0008303838 5.894161e-30)
(4.842855e-05 -0.001093621 -3.574147e-29)
(7.026835e-05 -0.001412701 -9.574251e-28)
(3.690897e-07 -6.054097e-06 3.252701e-30)
(4.527783e-06 -5.087198e-05 4.836099e-30)
(2.128369e-05 -0.0002261636 2.338658e-28)
(4.552959e-05 -0.000514774 -5.669723e-30)
(6.582915e-05 -0.0007892605 -3.379266e-28)
(8.594195e-05 -0.001055672 -2.434498e-31)
(0.0001150901 -0.001367534 3.819405e-27)
(5.23532e-07 -5.249061e-06 4.892733e-31)
(4.593687e-06 -3.413945e-05 -5.926514e-29)
(2.394618e-05 -0.000166398 -2.481352e-28)
(6.141776e-05 -0.0004420149 -1.700549e-28)
(9.487184e-05 -0.0007255193 2.630301e-27)
(0.0001232712 -0.0009910293 2.458206e-28)
(0.0001565257 -0.001283833 -3.427384e-27)
(4.409896e-07 -4.58361e-06 -9.158868e-30)
(3.132116e-06 -2.152576e-05 -3.122994e-29)
(1.752318e-05 -9.824542e-05 -1.022089e-28)
(6.269523e-05 -0.0003306386 -2.982334e-28)
(0.0001131396 -0.0006222756 8.486694e-30)
(0.000151627 -0.0008891506 -7.493702e-28)
(0.0001872138 -0.001168752 1.416377e-29)
(8.11725e-08 -3.754479e-06 8.164246e-32)
(1.248017e-06 -1.454576e-05 8.768114e-31)
(8.861185e-06 -5.000611e-05 -6.231383e-29)
(4.74492e-05 -0.0002013928 -3.047666e-28)
(0.0001140997 -0.0004832227 2.888433e-29)
(0.0001658622 -0.0007599333 7.568501e-28)
(0.0002032732 -0.001030577 9.138732e-28)
(-4.26316e-07 -3.192977e-06 -3.441489e-31)
(-7.060059e-07 -1.034624e-05 7.813425e-30)
(1.711314e-06 -2.466407e-05 1.380262e-29)
(2.220396e-05 -9.126959e-05 -1.057718e-29)
(9.109527e-05 -0.0003142481 7.518676e-28)
(0.0001628334 -0.0006037161 7.862567e-28)
(0.0002077692 -0.0008725206 -4.430784e-28)
(-9.424424e-07 -2.540864e-06 1.141419e-30)
(-2.602255e-06 -7.8361e-06 7.153552e-30)
(-2.702976e-06 -1.560585e-05 8.691559e-30)
(2.764071e-06 -3.500988e-05 -5.201005e-30)
(4.44304e-05 -0.000144629 1.054377e-27)
(0.0001328706 -0.0004089195 2.06774e-27)
(0.0001963162 -0.0006817033 -2.268532e-27)
(-1.375512e-06 -2.098178e-06 1.982823e-31)
(-4.307449e-06 -6.077406e-06 1.047083e-29)
(-5.99715e-06 -1.096161e-05 1.755132e-29)
(-5.523032e-06 -1.862258e-05 5.979201e-29)
(3.847551e-06 -4.316918e-05 3.645234e-28)
(6.71539e-05 -0.0001913378 3.331119e-28)
(0.000156546 -0.0004599493 -8.093351e-28)
(-1.676391e-06 -1.843411e-06 0)
(-5.453681e-06 -4.854156e-06 8.410071e-32)
(-8.410873e-06 -8.149184e-06 -4.079552e-29)
(-9.790431e-06 -1.211509e-05 -7.957346e-29)
(-8.568204e-06 -1.918058e-05 2.198913e-29)
(5.645158e-06 -5.00658e-05 2.374528e-28)
(8.032798e-05 -0.0002204599 4.605337e-27)
(-1.861751e-06 -1.648725e-06 0)
(-5.974843e-06 -3.962135e-06 -1.107688e-29)
(-9.704831e-06 -6.077108e-06 -1.767582e-29)
(-1.221006e-05 -8.571368e-06 -1.099043e-29)
(-1.305918e-05 -1.17645e-05 -2.953086e-29)
(-1.138587e-05 -1.790416e-05 -1.673999e-28)
(3.810628e-06 -4.871926e-05 -3.972731e-28)
(-1.948446e-06 -1.410143e-06 5.060852e-30)
(-6.080387e-06 -3.20014e-06 0)
(-1.001436e-05 -4.582866e-06 0)
(-1.313556e-05 -6.019259e-06 5.697878e-30)
(-1.498629e-05 -7.895038e-06 2.656788e-31)
(-1.52777e-05 -1.025391e-05 -2.443425e-30)
(-1.327724e-05 -1.512785e-05 -1.809167e-28)
(-1.960617e-06 -1.123875e-06 5.512022e-30)
(-5.946189e-06 -2.413652e-06 -5.483137e-30)
(-9.739667e-06 -3.341628e-06 -5.560134e-30)
(-1.300828e-05 -4.096431e-06 -4.588018e-29)
(-1.534031e-05 -4.947329e-06 -2.326543e-29)
(-1.649741e-05 -6.054563e-06 4.187569e-29)
(-1.645835e-05 -7.326328e-06 -7.144751e-29)
(-1.900861e-06 -8.357639e-07 0)
(-5.66104e-06 -1.630056e-06 -7.362032e-30)
(-9.197309e-06 -2.167255e-06 0)
(-1.224663e-05 -2.48112e-06 -1.135613e-29)
(-1.462449e-05 -2.696426e-06 -1.125098e-29)
(-1.617079e-05 -2.971331e-06 2.110838e-29)
(-1.686963e-05 -3.313894e-06 -3.126482e-30)
(-1.770212e-06 -5.90101e-07 0)
(-5.235953e-06 -9.349242e-07 8.977012e-30)
(-8.421453e-06 -1.089031e-06 -8.145164e-30)
(-1.113793e-05 -1.045846e-06 0)
(-1.326816e-05 -8.725039e-07 -2.233038e-29)
(-1.475477e-05 -6.119438e-07 -5.367828e-29)
(-1.563214e-05 -3.049954e-07 -2.244553e-29)
(-1.5859e-06 -3.962006e-07 0)
(-4.645571e-06 -3.693169e-07 2.410211e-29)
(-7.423041e-06 -1.928464e-07 -2.133985e-31)
(-9.745665e-06 1.595541e-07 -5.352618e-30)
(-1.1502e-05 6.61709e-07 -2.216446e-29)
(-1.266748e-05 1.307844e-06 -8.595183e-30)
(-1.326432e-05 2.141603e-06 -9.163401e-29)
(-1.35541e-06 -2.497658e-07 -5.80613e-30)
(-3.94692e-06 6.243727e-08 1.924025e-30)
(-6.262411e-06 4.968817e-07 1.120926e-31)
(-8.14705e-06 1.107161e-06 2.16634e-29)
(-9.485971e-06 1.885666e-06 0)
(-1.024254e-05 2.834278e-06 0)
(-1.034011e-05 4.075699e-06 4.459685e-29)
(-1.109052e-06 -1.423508e-07 -7.796275e-30)
(-3.212826e-06 3.74794e-07 4.12095e-30)
(-5.058914e-06 9.994038e-07 -6.986505e-30)
(-6.497253e-06 1.798497e-06 -6.980204e-30)
(-7.423725e-06 2.778788e-06 0)
(-7.756735e-06 3.993227e-06 0)
(-7.436083e-06 5.487427e-06 -1.057048e-29)
(-8.721848e-07 -6.91212e-08 5.156761e-30)
(-2.513339e-06 5.868235e-07 -4.608943e-30)
(-3.911097e-06 1.334686e-06 -5.571037e-30)
(-4.935875e-06 2.255096e-06 -1.205557e-29)
(-5.488762e-06 3.36805e-06 3.391957e-29)
(-5.470675e-06 4.724235e-06 5.009126e-29)
(-4.826148e-06 6.354804e-06 -1.771886e-29)
(-6.596656e-07 -2.555523e-08 2.669442e-30)
(-1.887295e-06 7.108772e-07 -2.801648e-30)
(-2.894623e-06 1.52421e-06 5.572647e-30)
(-3.570042e-06 2.500849e-06 5.600678e-30)
(-3.81378e-06 3.680257e-06 0)
(-3.54799e-06 5.078482e-06 -3.256943e-30)
(-2.772916e-06 6.687672e-06 -5.442581e-30)
(-4.804665e-07 -6.532391e-09 0)
(-1.359697e-06 7.61728e-07 -5.623119e-30)
(-2.046248e-06 1.591727e-06 -5.614517e-30)
(-2.4405e-06 2.587899e-06 3.185477e-29)
(-2.453793e-06 3.761775e-06 4.609054e-29)
(-2.032226e-06 5.122261e-06 -2.198748e-29)
(-1.211062e-06 6.650522e-06 -1.6015e-29)
(-3.341075e-07 -7.697641e-09 -2.236266e-30)
(-9.33618e-07 7.553263e-07 -2.818673e-30)
(-1.367387e-06 1.564854e-06 0)
(-1.54586e-06 2.532933e-06 -2.666959e-31)
(-1.393543e-06 3.66297e-06 -5.163548e-30)
(-9.118619e-07 4.936179e-06 -4.837067e-30)
(-8.956908e-08 6.360192e-06 -1.113107e-29)
(-2.208563e-07 -2.309829e-08 -5.017531e-30)
(-6.064386e-07 7.069763e-07 -2.205583e-30)
(-8.53259e-07 1.477228e-06 -4.053461e-29)
(-8.807005e-07 2.383594e-06 -1.647716e-29)
(-6.355095e-07 3.430912e-06 -1.048815e-29)
(-1.215854e-07 4.608249e-06 0)
(6.653501e-07 5.914235e-06 1.120331e-29)
(-1.364781e-07 -4.830591e-08 -1.429553e-30)
(-3.655155e-07 6.347218e-07 7.555938e-30)
(-4.71584e-07 1.344062e-06 -6.30254e-30)
(-3.935777e-07 2.17444e-06 0)
(-1.068325e-07 3.126179e-06 4.254579e-30)
(4.034982e-07 4.201122e-06 0)
(1.130093e-06 5.388307e-06 -3.712659e-30)
(-7.497809e-08 -7.957452e-08 0)
(-1.896837e-07 5.430154e-07 0)
(-2.025187e-07 1.181414e-06 9.032268e-30)
(-6.944064e-08 1.92701e-06 0)
(2.363592e-07 2.787518e-06 7.997113e-30)
(7.219452e-07 3.761639e-06 3.713663e-30)
(1.376233e-06 4.837635e-06 -3.56385e-30)
(-3.488396e-08 -1.136434e-07 3.457315e-30)
(-7.425865e-08 4.42371e-07 0)
(-2.914884e-08 1.005692e-06 7.116002e-30)
(1.353568e-07 1.669986e-06 -1.03474e-30)
(4.398325e-07 2.442574e-06 3.781977e-30)
(8.876177e-07 3.32206e-06 7.040041e-30)
(1.46778e-06 4.296858e-06 3.400607e-30)
(-7.125258e-09 -1.497223e-07 4.475133e-30)
(1.846113e-09 3.410279e-07 5.468791e-30)
(7.791342e-08 8.316156e-07 0)
(2.526484e-07 1.418793e-06 2.001392e-30)
(5.412975e-07 2.109863e-06 5.732455e-30)
(9.438542e-07 2.904282e-06 9.096138e-31)
(1.449082e-06 3.791796e-06 -1.742822e-29)
(8.358691e-09 -1.828761e-07 3.08746e-30)
(4.430028e-08 2.440665e-07 3.869077e-30)
(1.353734e-07 6.669438e-07 -3.607415e-30)
(3.07492e-07 1.183245e-06 0)
(5.719028e-07 1.800839e-06 0)
(9.263121e-07 2.52107e-06 3.19423e-30)
(1.361054e-06 3.344469e-06 4.414352e-29)
(1.647171e-08 -2.131855e-07 2.985359e-30)
(6.512777e-08 1.54828e-07 3.546379e-30)
(1.592567e-07 5.158389e-07 -3.489539e-30)
(3.206438e-07 9.682331e-07 0)
(5.57813e-07 1.520622e-06 5.768712e-30)
(8.688222e-07 2.176095e-06 -3.535937e-35)
(1.249694e-06 2.94301e-06 -5.993254e-30)
(1.943061e-08 -2.404298e-07 0)
(7.127034e-08 7.433566e-08 3.439874e-30)
(1.611547e-07 3.799286e-07 -3.228021e-30)
(3.073061e-07 7.756222e-07 0)
(5.165648e-07 1.270828e-06 -2.835254e-30)
(7.86735e-07 1.86991e-06 -1.16514e-29)
(1.111816e-06 2.582179e-06 -6.001237e-30)
(1.903416e-08 -2.647078e-07 -2.622026e-30)
(6.816615e-08 2.719031e-09 -1.457178e-30)
(1.495872e-07 2.592514e-07 -4.596164e-30)
(2.786262e-07 6.051769e-07 -2.901892e-30)
(4.611187e-07 1.050664e-06 -2.833563e-30)
(6.95022e-07 1.60106e-06 2.864308e-30)
(9.724112e-07 2.265684e-06 0)
(1.660201e-08 -2.861493e-07 -5.054209e-30)
(5.966056e-08 -6.043122e-08 0)
(1.306696e-07 1.529727e-07 0)
(2.425288e-07 4.554794e-07 1.040525e-31)
(3.993944e-07 8.578662e-07 -2.60297e-30)
(5.982701e-07 1.37081e-06 2.851101e-30)
(8.366285e-07 1.995214e-06 0)
(1.321865e-08 -3.051122e-07 -2.440794e-30)
(4.879637e-08 -1.160367e-07 -1.461631e-30)
(1.09069e-07 5.969179e-08 -1.458775e-30)
(2.053798e-07 3.241827e-07 -2.97806e-30)
(3.416773e-07 6.886108e-07 -5.640289e-30)
(5.186897e-07 1.167443e-06 0)
(7.250226e-07 1.758519e-06 2.631194e-30)
(9.507133e-09 -3.218291e-07 -5.82581e-31)
(3.730057e-08 -1.650869e-07 5.737214e-31)
(8.729419e-08 -2.261052e-08 1.206705e-30)
(1.694093e-07 2.083866e-07 5.191029e-30)
(2.870339e-07 5.39399e-07 0)
(4.395158e-07 9.85184e-07 3.575851e-30)
(6.175331e-07 1.544866e-06 5.992625e-32)
(5.865334e-09 -3.367795e-07 2.764077e-30)
(2.619422e-08 -2.087852e-07 4.635999e-30)
(6.689663e-08 -9.583699e-08 3.710558e-30)
(1.364318e-07 1.054245e-07 -4.045691e-31)
(2.380724e-07 4.066429e-07 -2.9457e-30)
(3.693894e-07 8.227144e-07 3.534847e-30)
(5.239854e-07 1.353954e-06 4.622406e-31)
(2.492767e-09 -3.50294e-07 2.142792e-30)
(1.617705e-08 -2.482076e-07 5.148932e-30)
(4.857203e-08 -1.619762e-07 2.511535e-30)
(1.063581e-07 1.227336e-08 0)
(1.909691e-07 2.887088e-07 -2.387998e-29)
(3.054445e-07 6.787264e-07 -2.996255e-29)
(4.432976e-07 1.180898e-06 -5.888275e-30)
(-4.564357e-10 -3.627487e-07 1.4238e-30)
(7.637775e-09 -2.846495e-07 3.235917e-30)
(3.339087e-08 -2.232256e-07 4.400507e-30)
(8.303572e-08 -7.410797e-08 2.94497e-30)
(1.599307e-07 1.781632e-07 0)
(2.608645e-07 5.447497e-07 2.359458e-30)
(3.780313e-07 1.019922e-06 2.937476e-30)
(-2.94188e-09 -3.74602e-07 1.392204e-30)
(5.771346e-10 -3.193652e-07 3.082112e-30)
(2.09179e-08 -2.816507e-07 2.936858e-30)
(6.339383e-08 -1.564773e-07 1.47408e-30)
(1.302753e-07 7.164383e-08 0)
(2.188117e-07 4.143295e-07 5.281428e-30)
(3.230092e-07 8.664374e-07 5.879394e-30)
(-4.974093e-09 -3.862325e-07 5.861312e-31)
(-4.927441e-09 -3.535242e-07 5.305469e-30)
(1.137547e-08 -3.390248e-07 1.469905e-30)
(4.845579e-08 -2.372401e-07 1.47556e-30)
(1.072785e-07 -3.289336e-08 0)
(1.857065e-07 2.863051e-07 0)
(2.78782e-07 7.162012e-07 0)
(-6.489015e-09 -3.98038e-07 0)
(-8.708014e-09 -3.882506e-07 2.225136e-30)
(4.984257e-09 -3.972804e-07 0)
(3.840166e-08 -3.191737e-07 -5.091318e-30)
(9.08694e-08 -1.385963e-07 -3.006845e-30)
(1.610938e-07 1.570607e-07 -2.962133e-30)
(2.446618e-07 5.648244e-07 -4.935449e-30)
(-7.454194e-09 -4.104179e-07 1.721956e-30)
(-1.072572e-08 -4.248283e-07 0)
(1.200887e-09 -4.586553e-07 2.952172e-30)
(2.982081e-08 -4.049824e-07 -2.303905e-29)
(7.82744e-08 -2.480106e-07 -2.18061e-29)
(1.442414e-07 2.261578e-08 0)
(2.201565e-07 4.079438e-07 -1.971008e-30)
(-7.768748e-09 -4.239717e-07 1.697951e-30)
(-1.015888e-08 -4.64964e-07 0)
(3.169697e-09 -5.258414e-07 1.47918e-30)
(3.39603e-08 -4.99198e-07 1.500011e-30)
(8.041341e-08 -3.674423e-07 4.190825e-30)
(1.381926e-07 -1.219886e-07 -1.943046e-30)
(2.058833e-07 2.408811e-07 1.872824e-30)
(-7.254281e-09 -4.393765e-07 0)
(-6.746149e-09 -5.108002e-07 3.419869e-30)
(9.624292e-09 -6.023065e-07 1.48018e-30)
(4.163978e-08 -6.055995e-07 -2.520177e-30)
(8.664966e-08 -5.0182e-07 2.030786e-30)
(1.406853e-07 -2.817412e-07 -1.923821e-30)
(2.016439e-07 5.862924e-08 3.830485e-32)
(-5.529834e-09 -4.577255e-07 0)
(9.248223e-10 -5.654062e-07 1.914221e-30)
(2.316436e-08 -6.927335e-07 -1.852635e-30)
(5.879532e-08 -7.302234e-07 -9.95228e-31)
(1.038971e-07 -6.572541e-07 3.408878e-30)
(1.544576e-07 -4.634046e-07 2.955894e-30)
(2.085692e-07 -1.450239e-07 -1.804329e-30)
(-1.896419e-09 -4.804012e-07 0)
(1.506851e-08 -6.332279e-07 0)
(4.711564e-08 -8.043209e-07 -1.826017e-30)
(8.904154e-08 -8.818731e-07 2.369126e-30)
(1.352977e-07 -8.428682e-07 3.986575e-32)
(1.81983e-07 -6.756771e-07 0)
(2.281822e-07 -3.776588e-07 0)
(4.896496e-09 -5.099571e-07 1.41755e-30)
(3.918599e-08 -7.215786e-07 -1.727621e-30)
(8.659463e-08 -9.479811e-07 -2.341847e-30)
(1.376883e-07 -1.073424e-06 8.456676e-31)
(1.852261e-07 -1.071581e-06 -3.84714e-32)
(2.263375e-07 -9.300848e-07 2.957788e-30)