/*--------------------------------*- C++ -*----------------------------------*\
| =========                 |                                                 |
| \\      /  F ield         | OpenFOAM: The Open Source CFD Toolbox           |
|  \\    /   O peration     | Version:  2206                                  |
|   \\  /    A nd           | Website:  www.openfoam.com                      |
|    \\/     M anipulation  |                                                 |
\*---------------------------------------------------------------------------*/
FoamFile
{
    version     2.0;
    format      ascii;
    arch        "LSB;label=32;scalar=64";
    class       volVectorField;
    location    "1.4";
    object      U.a_0;
}
// * * * * * * * * * * * * * * * * * * * * * * * * * * * * * * * * * * * * * //

dimensions      [0 1 -1 0 0 0 0];

internalField   nonuniform List<vector> 
13078
(
(1.018694e-06 -5.03806e-05 5.533183e-28)
(3.943326e-09 -3.019268e-05 1.519324e-33)
(-7.47376e-08 -2.0117e-05 -2.703704e-29)
(-4.799613e-08 -1.366829e-05 0)
(-4.025001e-08 -9.931105e-06 -1.155204e-29)
(-3.583272e-08 -7.471697e-06 -1.157974e-29)
(-3.175849e-08 -5.650907e-06 -1.159272e-29)
(-1.98833e-05 -2.421735e-05 0)
(-1.083148e-05 -2.212807e-05 -7.952587e-33)
(-4.132196e-06 -1.65169e-05 0)
(-1.892128e-06 -1.230572e-05 0)
(-9.878422e-07 -9.354482e-06 3.96417e-34)
(-5.735785e-07 -7.189943e-06 2.582337e-34)
(-3.625831e-07 -5.496515e-06 6.613886e-34)
(-7.674896e-06 -7.260451e-06 -2.851618e-31)
(-6.773513e-06 -1.148606e-05 5.303239e-31)
(-4.14282e-06 -1.13411e-05 1.171881e-29)
(-2.417646e-06 -9.725776e-06 2.317765e-29)
(-1.455077e-06 -7.981073e-06 1.157254e-29)
(-9.158358e-07 -6.409035e-06 0)
(-6.054202e-07 -5.023569e-06 -6.598705e-35)
(-2.38884e-06 -3.015439e-06 -4.071837e-31)
(-3.485526e-06 -6.277416e-06 1.217918e-30)
(-2.956223e-06 -7.414001e-06 2.571661e-30)
(-2.150466e-06 -7.221687e-06 1.560533e-30)
(-1.487538e-06 -6.411357e-06 -2.973771e-34)
(-1.029057e-06 -5.405928e-06 0)
(-7.260465e-07 -4.363726e-06 -6.751764e-34)
(-8.679566e-07 -1.67133e-06 -2.953146e-31)
(-1.782361e-06 -3.712559e-06 -4.229818e-31)
(-1.898884e-06 -4.892778e-06 1.139833e-30)
(-1.638516e-06 -5.221941e-06 2.112952e-31)
(-1.293329e-06 -4.980598e-06 -1.402824e-29)
(-9.814832e-07 -4.396888e-06 -2.170814e-35)
(-7.425934e-07 -3.644416e-06 1.160565e-29)
(-3.637454e-07 -1.11459e-06 0)
(-9.402174e-07 -2.401449e-06 7.408539e-31)
(-1.180924e-06 -3.349705e-06 -7.467432e-31)
(-1.164038e-06 -3.789333e-06 8.610233e-31)
(-1.024878e-06 -3.797785e-06 1.494113e-30)
(-8.533998e-07 -3.490782e-06 -1.172263e-29)
(-6.92579e-07 -2.953096e-06 -2.325417e-29)
(-1.714592e-07 -8.447779e-07 0)
(-5.152477e-07 -1.686427e-06 7.97892e-31)
(-7.282331e-07 -2.396129e-06 -1.109859e-29)
(-7.980615e-07 -2.798472e-06 -1.196713e-29)
(-7.726132e-07 -2.891277e-06 2.352282e-30)
(-6.987044e-07 -2.71718e-06 1.477461e-30)
(-6.107934e-07 -2.329851e-06 0)
(-8.759986e-08 -6.962496e-07 -1.35531e-30)
(-2.926973e-07 -1.268379e-06 8.171966e-31)
(-4.539801e-07 -1.792001e-06 8.430746e-31)
(-5.438848e-07 -2.119311e-06 0)
(-5.69809e-07 -2.217099e-06 1.839184e-30)
(-5.545772e-07 -2.0937e-06 1.480137e-30)
(-5.198209e-07 -1.77979e-06 1.476691e-30)
(-4.619499e-08 -6.063829e-07 3.231839e-32)
(-1.696629e-07 -1.007601e-06 -1.740258e-30)
(-2.846688e-07 -1.39812e-06 6.074825e-31)
(-3.689568e-07 -1.64584e-06 1.500705e-30)
(-4.166258e-07 -1.715734e-06 5.205614e-30)
(-4.352594e-07 -1.601372e-06 1.480356e-30)
(-4.363782e-07 -1.316272e-06 0)
(-2.388464e-08 -5.478838e-07 1.442235e-30)
(-9.858567e-08 -8.351361e-07 -1.764839e-30)
(-1.793184e-07 -1.128842e-06 -8.83453e-31)
(-2.511578e-07 -1.306916e-06 2.406605e-30)
(-3.057193e-07 -1.33837e-06 -3.849818e-32)
(-3.430273e-07 -1.211693e-06 0)
(-3.68003e-07 -9.310312e-07 0)
(-1.102331e-08 -5.074351e-07 0)
(-5.599359e-08 -7.149187e-07 0)
(-1.128029e-07 -9.366506e-07 -1.860719e-30)
(-1.724903e-07 -1.056745e-06 2.41619e-30)
(-2.277491e-07 -1.048537e-06 3.990396e-32)
(-2.753627e-07 -8.995925e-07 0)
(-3.16344e-07 -6.092696e-07 0)
(-3.297368e-09 -4.780524e-07 0)
(-2.962352e-08 -6.269633e-07 1.92565e-30)
(-7.024251e-08 -7.934374e-07 -1.872528e-30)
(-1.204045e-07 -8.656244e-07 -4.029669e-30)
(-1.744847e-07 -8.200471e-07 4.821319e-31)
(-2.282284e-07 -6.449063e-07 0)
(-2.805577e-07 -3.373332e-07 1.079179e-30)
(1.477916e-09 -4.554563e-07 0)
(-1.28724e-08 -5.593758e-07 4.596207e-31)
(-4.282773e-08 -6.82134e-07 -1.48143e-30)
(-8.646605e-08 -7.14181e-07 -2.535132e-30)
(-1.396e-07 -6.344292e-07 2.059102e-30)
(-1.97699e-07 -4.321881e-07 -1.967339e-30)
(-2.589408e-07 -1.035934e-07 3.838603e-32)
(4.530453e-09 -4.37272e-07 1.672761e-30)
(-2.100787e-09 -5.050404e-07 0)
(-2.513143e-08 -5.918166e-07 -1.480697e-30)
(-6.493936e-08 -5.894891e-07 -1.502161e-30)
(-1.183474e-07 -4.787719e-07 4.210481e-30)
(-1.803653e-07 -2.497752e-07 -1.969545e-30)
(-2.495837e-07 1.014546e-07 1.917896e-30)
(6.507643e-09 -4.219115e-07 1.67769e-30)
(4.923395e-09 -4.593268e-07 0)
(-1.332409e-08 -5.154057e-07 -2.955753e-30)
(-4.84664e-08 -4.826966e-07 1.885374e-29)
(-1.025351e-07 -3.442494e-07 2.620167e-29)
(-1.726568e-07 -8.880468e-08 0)
(-2.508331e-07 2.855404e-07 -1.999044e-30)
(7.796056e-09 -4.083481e-07 0)
(9.102757e-09 -4.191316e-07 2.148669e-30)
(-7.7797e-09 -4.479749e-07 0)
(-4.529718e-08 -3.884025e-07 8.855255e-31)
(-1.020944e-07 -2.245741e-07 3.014295e-30)
(-1.761287e-07 5.719218e-08 2.970932e-30)
(-2.623207e-07 4.548601e-07 9.567352e-31)
(8.706869e-09 -3.958023e-07 0)
(1.172511e-08 -3.821863e-07 4.354955e-30)
(-4.634727e-09 -3.859651e-07 -1.472293e-30)
(-4.353648e-08 -3.012113e-07 -1.478878e-30)
(-1.05258e-07 -1.122988e-07 0)
(-1.869531e-07 1.942067e-07 0)
(-2.828307e-07 6.149678e-07 0)
(9.342016e-09 -3.83796e-07 2.443593e-30)
(1.313273e-08 -3.468833e-07 1.468558e-30)
(-3.917777e-09 -3.266236e-07 -2.942311e-30)
(-4.584322e-08 -2.175961e-07 -1.477864e-30)
(-1.140134e-07 -4.018531e-09 0)
(-2.050638e-07 3.268777e-07 -7.142882e-31)
(-3.121453e-07 7.707445e-07 -5.905682e-30)
(9.805785e-09 -3.718417e-07 2.441594e-30)
(1.369958e-08 -3.118316e-07 1.584287e-30)
(-5.087633e-09 -2.676245e-07 -4.409783e-30)
(-5.145045e-08 -1.343026e-07 -2.953558e-30)
(-1.278099e-07 1.039446e-07 0)
(-2.302975e-07 4.592802e-07 2.258744e-30)
(-3.503173e-07 9.268475e-07 -2.952389e-30)
(1.020585e-08 -3.595368e-07 1.954392e-30)
(1.378702e-08 -2.757721e-07 4.695981e-30)
(-7.537905e-09 -2.069088e-07 2.30016e-30)
(-5.893926e-08 -4.855352e-08 0)
(-1.409036e-07 2.139779e-07 2.397722e-29)
(-2.556782e-07 5.928893e-07 3.010962e-29)
(-3.963467e-07 1.087759e-06 5.922063e-30)
(1.070501e-08 -3.463861e-07 1.367766e-30)
(1.365088e-08 -2.373747e-07 5.549511e-30)
(-1.135908e-08 -1.423772e-07 6.12058e-30)
(-7.103155e-08 4.247457e-08 5.214277e-30)
(-1.675231e-07 3.29512e-07 2.959537e-30)
(-2.978574e-07 7.342005e-07 3.358169e-30)
(-4.550131e-07 1.258252e-06 -5.311761e-30)
(1.148826e-08 -3.320691e-07 0)
(1.391312e-08 -1.954499e-07 3.902659e-30)
(-1.5126e-08 -7.187016e-08 3.818644e-30)
(-8.343233e-08 1.418479e-07 4.610971e-30)
(-1.931809e-07 4.578737e-07 0)
(-3.430393e-07 8.917427e-07 3.352411e-30)
(-5.231705e-07 1.44422e-06 6.037758e-32)
(1.285823e-08 -3.16171e-07 -2.11476e-30)
(1.552573e-08 -1.488587e-07 0)
(-1.763793e-08 6.499282e-09 0)
(-9.560749e-08 2.524294e-07 2.861847e-30)
(-2.208994e-07 6.008077e-07 5.520619e-31)
(-3.933859e-07 1.06698e-06 0)
(-6.011708e-07 1.650635e-06 2.401271e-30)
(1.534771e-08 -2.983053e-07 -4.288265e-30)
(1.982465e-08 -9.647281e-08 0)
(-1.685971e-08 9.461138e-08 0)
(-1.051403e-07 3.768143e-07 -5.313078e-30)
(-2.472626e-07 7.617587e-07 -7.698213e-30)
(-4.393955e-07 1.261232e-06 2.510728e-30)
(-6.781819e-07 1.877756e-06 0)
(1.964831e-08 -2.781956e-07 -2.175823e-30)
(2.88095e-08 -3.73168e-08 1.46084e-30)
(-9.940282e-09 1.942468e-07 -1.163854e-30)
(-1.091369e-07 5.176664e-07 2.918742e-30)
(-2.724788e-07 9.441071e-07 2.986519e-30)
(-4.967635e-07 1.479951e-06 2.460987e-30)
(-7.738655e-07 2.136149e-06 0)
(2.690068e-08 -2.555733e-07 0)
(4.565645e-08 2.929408e-08 2.810519e-30)
(8.125465e-09 3.066907e-07 -2.625117e-30)
(-1.006617e-07 6.770969e-07 0)
(-2.855944e-07 1.151098e-06 8.252722e-30)
(-5.429995e-07 1.734252e-06 1.176689e-29)
(-8.666694e-07 2.437678e-06 6.070434e-30)
(3.855231e-08 -2.30389e-07 2.39237e-30)
(7.460044e-08 1.035913e-07 2.821509e-30)
(4.407267e-08 4.324626e-07 -2.794045e-30)
(-7.12451e-08 8.560266e-07 0)
(-2.779286e-07 1.384383e-06 -5.821186e-30)
(-5.72388e-07 2.022271e-06 -4.248324e-35)
(-9.504374e-07 2.780143e-06 6.070356e-30)
(5.658648e-08 -2.026166e-07 2.410081e-30)
(1.215004e-07 1.851844e-07 3.039779e-30)
(1.070128e-07 5.709774e-07 -2.808701e-30)
(-9.013432e-09 1.053929e-06 0)
(-2.355474e-07 1.64388e-06 0)
(-5.688533e-07 2.344481e-06 2.539837e-30)
(-9.990189e-07 3.158871e-06 -5.079068e-29)
(8.325799e-08 -1.7263e-07 1.403999e-30)
(1.935965e-07 2.726493e-07 1.622358e-30)
(2.090174e-07 7.199274e-07 0)
(1.020599e-07 1.268072e-06 -8.672409e-30)
(-1.399582e-07 1.926797e-06 -5.795638e-30)
(-5.158098e-07 2.698537e-06 1.092537e-29)
(-1.013632e-06 3.576679e-06 1.766934e-29)
(1.232811e-07 -1.403525e-07 2.591541e-30)
(3.029083e-07 3.623915e-07 0)
(3.665278e-07 8.745117e-07 3.036432e-31)
(2.834163e-07 1.49246e-06 -5.798681e-30)
(3.576352e-08 2.226285e-06 2.843769e-30)
(-3.783367e-07 3.078313e-06 5.290697e-30)
(-9.475969e-07 4.041623e-06 2.597367e-30)
(1.766732e-07 -1.108191e-07 0)
(4.553689e-07 4.488298e-07 0)
(5.967011e-07 1.026236e-06 6.686644e-30)
(5.605231e-07 1.716032e-06 0)
(3.234581e-07 2.529171e-06 5.852579e-30)
(-1.199774e-07 3.46878e-06 2.705089e-30)
(-7.584414e-07 4.528693e-06 -2.632254e-30)
(2.533612e-07 -8.516553e-08 3.500891e-31)
(6.719541e-07 5.236415e-07 -6.216555e-30)
(9.287383e-07 1.159881e-06 -4.985009e-30)
(9.657406e-07 1.922122e-06 0)
(7.61301e-07 2.815148e-06 3.033808e-30)
(3.028955e-07 3.845518e-06 0)
(-4.015719e-07 5.008992e-06 -1.414258e-29)
(3.546204e-07 -6.651285e-08 2.703827e-30)
(9.571967e-07 5.762707e-07 -3.410408e-30)
(1.378953e-06 1.258771e-06 -1.221276e-29)
(1.54254e-06 2.081207e-06 -3.722703e-30)
(1.395066e-06 3.054467e-06 9.186805e-30)
(9.440471e-07 4.173456e-06 5.723964e-30)
(1.861075e-07 5.444571e-06 -5.726528e-30)
(4.865358e-07 -5.891275e-08 1.119918e-30)
(1.334067e-06 6.012448e-07 1.415256e-30)
(1.968032e-06 1.30646e-06 2.133392e-30)
(2.305687e-06 2.171051e-06 -1.574696e-29)
(2.268583e-06 3.206663e-06 -7.93165e-30)
(1.861854e-06 4.402284e-06 1.140438e-29)
(1.075564e-06 5.775141e-06 2.27887e-29)
(6.530758e-07 -6.650028e-08 -1.116072e-30)
(1.814179e-06 5.822301e-07 -1.409589e-30)
(2.72975e-06 1.287608e-06 -9.449098e-30)
(3.306524e-06 2.157404e-06 -5.610015e-29)
(3.454529e-06 3.209678e-06 -5.845794e-29)
(3.12222e-06 4.464793e-06 -1.533984e-29)
(2.342583e-06 5.918752e-06 0)
(8.555734e-07 -9.386408e-08 0)
(2.401395e-06 5.049898e-07 0)
(3.668425e-06 1.171387e-06 -3.990854e-30)
(4.55118e-06 1.994866e-06 7.227217e-30)
(4.958047e-06 3.013901e-06 5.395386e-29)
(4.81172e-06 4.2593e-06 4.2488e-29)
(4.062783e-06 5.769984e-06 0)
(1.091632e-06 -1.451346e-07 -2.216448e-30)
(3.090702e-06 3.568377e-07 2.79994e-30)
(4.779838e-06 9.360098e-07 5.583199e-30)
(6.038558e-06 1.670371e-06 0)
(6.775521e-06 2.576182e-06 -8.7505e-30)
(6.877955e-06 3.737686e-06 -1.170913e-29)
(6.277313e-06 5.208432e-06 -2.273944e-29)
(1.353237e-06 -2.235658e-07 6.18687e-30)
(3.859765e-06 1.275481e-07 2.792005e-30)
(6.028772e-06 5.637502e-07 4.830188e-30)
(7.725364e-06 1.146641e-06 0)
(8.85205e-06 1.880687e-06 6.495344e-30)
(9.31451e-06 2.833399e-06 -8.604532e-29)
(9.05453e-06 4.070753e-06 -1.160988e-28)
(1.62414e-06 -3.316103e-07 6.293046e-30)
(4.662758e-06 -1.918096e-07 8.108049e-30)
(7.341176e-06 4.072172e-08 5.047603e-30)
(9.507968e-06 4.044063e-07 -1.108666e-29)
(1.106424e-05 8.850402e-07 -2.213592e-29)
(1.195596e-05 1.498979e-06 -3.913775e-29)
(1.21065e-05 2.370088e-06 -4.668429e-29)
(1.876114e-06 -4.710756e-07 0)
(5.424078e-06 -6.12046e-07 -1.224706e-29)
(8.604317e-06 -6.452935e-07 -5.644208e-30)
(1.12365e-05 -5.625384e-07 5.546963e-30)
(1.32225e-05 -4.026528e-07 -5.503832e-30)
(1.452427e-05 -1.77871e-07 -1.113529e-29)
(1.513019e-05 1.683154e-07 0)
(2.07493e-06 -6.488918e-07 -3.773981e-30)
(6.063208e-06 -1.141872e-06 -3.448048e-29)
(9.685641e-06 -1.503241e-06 -2.842596e-29)
(1.274765e-05 -1.744415e-06 -1.20855e-29)
(1.511961e-05 -1.956269e-06 -5.326509e-30)
(1.673632e-05 -2.196491e-06 -1.720012e-29)
(1.756403e-05 -2.507074e-06 -1.812985e-30)
(2.218161e-06 -8.696911e-07 -5.770913e-30)
(6.51083e-06 -1.772852e-06 -2.756853e-30)
(1.050116e-05 -2.502564e-06 0)
(1.391768e-05 -3.118589e-06 3.383184e-30)
(1.656303e-05 -3.768556e-06 -1.303884e-29)
(1.824129e-05 -4.646282e-06 -5.281914e-30)
(1.888265e-05 -5.773135e-06 1.898268e-31)
(2.278045e-06 -1.125109e-06 3.574715e-30)
(6.788338e-06 -2.470807e-06 5.470996e-30)
(1.100923e-05 -3.561715e-06 5.557632e-30)
(1.462972e-05 -4.635148e-06 -3.08727e-29)
(1.722067e-05 -5.999081e-06 -4.484387e-29)
(1.854719e-05 -7.836678e-06 -7.906069e-30)
(1.853513e-05 -1.030351e-05 -6.144763e-29)
(2.246051e-06 -1.375746e-06 3.211939e-30)
(6.855462e-06 -3.162881e-06 0)
(1.115651e-05 -4.681944e-06 1.101975e-29)
(1.45309e-05 -6.4573e-06 1.150967e-29)
(1.657149e-05 -8.906182e-06 1.171158e-29)
(1.705412e-05 -1.224189e-05 2.083822e-29)
(1.529701e-05 -1.90669e-05 -8.15087e-29)
(2.114067e-06 -1.582634e-06 0)
(6.601242e-06 -3.844927e-06 1.099183e-29)
(1.057688e-05 -6.097514e-06 1.041208e-29)
(1.32027e-05 -8.9797e-06 3.800649e-30)
(1.412219e-05 -1.285583e-05 -2.065174e-29)
(1.25232e-05 -2.045127e-05 -4.310583e-28)
(-1.326936e-05 -8.54487e-05 -2.29601e-27)
(1.854855e-06 -1.760207e-06 0)
(5.838005e-06 -4.701889e-06 2.362412e-30)
(8.863974e-06 -8.147233e-06 -3.93726e-29)
(1.021849e-05 -1.255015e-05 -4.556427e-29)
(8.691241e-06 -2.108187e-05 2.300312e-29)
(-1.578081e-05 -7.680284e-05 -9.544783e-28)
(-9.54587e-05 -0.0002964032 -2.407764e-27)
(1.455466e-06 -2.02175e-06 3.236079e-30)
(4.382968e-06 -5.926572e-06 4.315797e-30)
(5.945904e-06 -1.092714e-05 8.143413e-31)
(5.028888e-06 -1.97119e-05 1.397554e-30)
(-1.050519e-05 -5.840592e-05 -1.971476e-29)
(-8.679842e-05 -0.0002468455 -5.585796e-29)
(-0.0001671014 -0.000531093 -3.803859e-30)
(9.092674e-07 -2.482488e-06 6.492658e-31)
(2.34697e-06 -7.690762e-06 7.947317e-32)
(1.978269e-06 -1.608282e-05 4.301674e-30)
(-6.39049e-06 -4.146026e-05 -4.012337e-29)
(-6.061944e-05 -0.0001782171 1.115598e-27)
(-0.0001554993 -0.0004562255 2.297523e-27)
(-0.0002159767 -0.0007235542 3.997714e-27)
(2.890569e-07 -3.144351e-06 -5.57506e-33)
(1.618569e-07 -1.04229e-05 -3.023954e-31)
(-3.399829e-06 -2.633387e-05 4.882769e-29)
(-3.021678e-05 -0.0001043675 1.169816e-28)
(-0.0001121193 -0.0003419747 5.219837e-29)
(-0.0001955868 -0.0006272802 -1.227291e-28)
(-0.0002512653 -0.0008826499 4.891722e-27)
(-2.840189e-07 -3.740154e-06 4.482217e-34)
(-2.08931e-06 -1.476256e-05 -1.339003e-31)
(-1.198278e-05 -5.274667e-05 9.938337e-29)
(-5.948099e-05 -0.000211738 3.069962e-28)
(-0.0001421227 -0.0004951745 5.091045e-29)
(-0.0002132172 -0.0007653909 -1.176682e-28)
(-0.000273952 -0.001023088 -1.867162e-28)
(-7.087271e-07 -4.539452e-06 6.890643e-31)
(-4.354559e-06 -2.169236e-05 -2.414195e-31)
(-2.25234e-05 -9.868029e-05 4.647454e-29)
(-8.002746e-05 -0.0003305429 1.042116e-28)
(-0.0001503939 -0.0006206793 1.181065e-28)
(-0.0002124834 -0.000884379 -1.199941e-28)
(-0.0002783747 -0.001158663 8.514413e-28)
(-8.530986e-07 -5.15223e-06 1.261704e-30)
(-6.399264e-06 -3.338599e-05 -5.469845e-29)
(-3.16602e-05 -0.0001606354 -9.244545e-28)
(-8.484937e-05 -0.0004313608 -2.463708e-27)
(-0.0001399143 -0.0007143218 1.227981e-27)
(-0.0001927229 -0.0009796816 6.133247e-27)
(-0.0002568197 -0.00127248 3.172708e-27)
(-7.95233e-07 -5.841371e-06 2.402781e-31)
(-7.286888e-06 -4.76912e-05 3.400125e-29)
(-3.26984e-05 -0.0002125143 9.073766e-29)
(-7.536793e-05 -0.0004957866 1.718694e-29)
(-0.0001177455 -0.0007716446 2.771626e-29)
(-0.000161752 -0.0010391 -3.83916e-29)
(-0.0002206234 -0.001351519 -3.409545e-27)
(-7.354524e-07 -6.998408e-06 5.616107e-31)
(-7.400018e-06 -6.312054e-05 -1.839472e-30)
(-3.041122e-05 -0.0002567965 -1.080389e-29)
(-6.438518e-05 -0.0005429197 -6.864653e-32)
(-9.720762e-05 -0.0008109511 -1.045048e-29)
(-0.0001336663 -0.001077409 -1.12028e-28)
(-0.0001849362 -0.001399685 -5.862871e-29)
(-6.96513e-07 -8.283369e-06 5.546945e-30)
(-6.809663e-06 -7.707238e-05 7.79609e-29)
(-2.567305e-05 -0.0002903423 1.207608e-28)
(-5.136149e-05 -0.0005755216 2.843184e-29)
(-7.617224e-05 -0.0008372765 -2.822729e-28)
(-0.0001050423 -0.00110373 3.525753e-29)
(-0.0001468906 -0.00143758 5.206356e-28)
(-5.882636e-07 -9.112309e-06 -4.508363e-30)
(-5.177524e-06 -8.55787e-05 -2.901208e-29)
(-1.805511e-05 -0.0003089977 -1.227755e-31)
(-3.504769e-05 -0.0005927259 -2.313861e-29)
(-5.153525e-05 -0.000851005 2.894597e-28)
(-6.975624e-05 -0.001117793 7.982828e-28)
(-9.366241e-05 -0.001459744 -2.798229e-28)
(-3.666184e-07 -9.028844e-06 -4.463072e-30)
(-2.536933e-06 -8.507008e-05 -2.861592e-29)
(-7.881041e-06 -0.000308653 1.773351e-30)
(-1.562282e-05 -0.0005938732 -7.204837e-30)
(-2.353302e-05 -0.0008537795 2.92651e-28)
(-2.995021e-05 -0.00112164 3.589986e-28)
(-3.276993e-05 -0.001463095 -1.453267e-27)
(-1.408562e-07 -8.07192e-06 -1.767618e-32)
(1.36846e-07 -7.553158e-05 2.979335e-30)
(2.402659e-06 -0.0002887417 -7.144927e-30)
(4.281963e-06 -0.0005779248 4.854555e-29)
(4.955099e-06 -0.000844395 3.441725e-28)
(8.816608e-06 -0.001114717 8.071532e-28)
(2.168978e-05 -0.001449992 5.322543e-28)
(6.872173e-08 -6.728177e-06 1.312135e-30)
(2.287092e-06 -6.039395e-05 1.450168e-29)
(1.153071e-05 -0.0002520849 -1.184779e-28)
(2.371622e-05 -0.0005433118 -1.460119e-28)
(3.324045e-05 -0.0008188127 5.59429e-29)
(4.493662e-05 -0.001092648 -2.761925e-29)
(6.614543e-05 -0.0014219 4.467102e-32)
(2.662324e-07 -5.69687e-06 2.590639e-30)
(3.514938e-06 -4.409429e-05 -4.30543e-29)
(1.798466e-05 -0.0002028153 -1.342947e-28)
(4.131632e-05 -0.0004898566 -4.928657e-29)
(6.14218e-05 -0.00077522 2.247362e-30)
(8.100958e-05 -0.001052495 -2.12685e-30)
(0.000109429 -0.001374783 6.094128e-28)
(3.723163e-07 -5.019632e-06 4.086637e-30)
(3.510585e-06 -2.983248e-05 -1.768642e-30)
(1.971488e-05 -0.0001459803 -7.162603e-28)
(5.526685e-05 -0.0004147686 -2.434358e-27)
(8.879022e-05 -0.0007082868 1.373573e-27)
(0.0001168578 -0.0009850733 3.291117e-27)
(0.0001494433 -0.001287863 3.12465e-27)
(2.256997e-07 -4.36792e-06 -6.459707e-31)
(2.164957e-06 -1.937523e-05 6.285987e-29)
(1.358924e-05 -8.446396e-05 2.557231e-28)
(5.476299e-05 -0.0003026159 1.713444e-29)
(0.0001051567 -0.0006007236 5.955091e-29)
(0.0001438346 -0.0008796079 -8.218342e-29)
(0.0001789912 -0.001169428 -8.107715e-29)
(-1.900369e-07 -3.577153e-06 -3.482844e-30)
(3.16251e-07 -1.342693e-05 -4.679597e-30)
(5.948353e-06 -4.311985e-05 -6.938936e-29)
(3.905819e-05 -0.000177798 -6.596278e-29)
(0.000103977 -0.0004574159 3.963054e-28)
(0.0001566804 -0.0007459247 1.497374e-29)
(0.000194142 -0.001027777 -2.533549e-28)
(-7.617286e-07 -2.987233e-06 1.961155e-31)
(-1.676121e-06 -9.611338e-06 -6.190955e-31)
(-2.545337e-07 -2.236646e-05 -3.815104e-29)
(1.590656e-05 -7.809041e-05 -1.426876e-28)
(7.927643e-05 -0.0002874749 6.005712e-29)
(0.0001519167 -0.0005842663 -9.459122e-29)
(0.0001976796 -0.0008656592 -6.108018e-27)
(-1.296653e-06 -2.368363e-06 -2.128913e-30)
(-3.617005e-06 -7.347565e-06 -2.880268e-30)
(-4.382553e-06 -1.446163e-05 -4.729485e-32)
(-6.176629e-07 -3.066036e-05 -7.440171e-29)
(3.411785e-05 -0.0001253225 -3.525989e-28)
(0.0001196453 -0.0003846428 4.301455e-27)
(0.0001850072 -0.0006692415 2.460066e-27)
(-1.717385e-06 -1.950629e-06 -7.608484e-31)
(-5.275113e-06 -5.64817e-06 -2.762933e-30)
(-7.5151e-06 -1.026637e-05 1.559169e-29)
(-7.693346e-06 -1.724244e-05 3.355333e-29)
(-8.614653e-07 -3.732424e-05 1.523263e-28)
(5.464726e-05 -0.0001707895 5.339377e-29)
(0.0001437194 -0.0004414396 -4.269334e-27)
(-1.989128e-06 -1.721289e-06 0)
(-6.337569e-06 -4.496215e-06 1.339236e-30)
(-9.797575e-06 -7.56795e-06 4.279804e-29)
(-1.160067e-05 -1.133219e-05 5.75708e-29)
(-1.092874e-05 -1.788366e-05 -1.450428e-29)
(-1.234122e-07 -4.308087e-05 -9.903689e-29)
(6.77542e-05 -0.0002015812 -5.611073e-27)
(-2.137804e-06 -1.550628e-06 0)
(-6.74633e-06 -3.678141e-06 -1.108695e-29)
(-1.091143e-05 -5.620247e-06 -1.610868e-29)
(-1.37833e-05 -7.961301e-06 3.350824e-31)
(-1.492038e-05 -1.103861e-05 1.675071e-29)
(-1.361262e-05 -1.689576e-05 1.770712e-28)
(-1.957893e-06 -4.182707e-05 1.435202e-28)
(-2.183092e-06 -1.333817e-06 4.080358e-30)
(-6.730844e-06 -2.980356e-06 0)
(-1.102586e-05 -4.233113e-06 0)
(-1.44514e-05 -5.556111e-06 -2.091263e-29)
(-1.654307e-05 -7.342824e-06 -5.275816e-31)
(-1.700222e-05 -9.653518e-06 3.55155e-29)
(-1.522097e-05 -1.439634e-05 -1.186589e-28)
(-2.154148e-06 -1.065594e-06 4.564183e-30)
(-6.478105e-06 -2.246416e-06 -5.494148e-30)
(-1.056244e-05 -3.077102e-06 -5.58086e-30)
(-1.40732e-05 -3.750739e-06 -4.609742e-29)
(-1.659284e-05 -4.540637e-06 -2.824894e-29)
(-1.787986e-05 -5.613275e-06 1.023798e-31)
(-1.79085e-05 -6.884732e-06 -5.633687e-29)
(-2.056708e-06 -7.916428e-07 0)
(-6.085123e-06 -1.503753e-06 -6.209404e-30)
(-9.848861e-06 -1.968345e-06 0)
(-1.308191e-05 -2.224054e-06 -1.14251e-29)
(-1.559797e-05 -2.39891e-06 -1.134769e-29)
(-1.723633e-05 -2.65326e-06 3.146377e-32)
(-1.797447e-05 -3.001118e-06 -2.194767e-29)
(-1.893329e-06 -5.567599e-07 0)
(-5.567081e-06 -8.394397e-07 7.892568e-30)
(-8.923399e-06 -9.393183e-07 -7.053533e-30)
(-1.17737e-05 -8.535032e-07 0)
(-1.400017e-05 -6.513932e-07 -2.252423e-29)
(-1.554282e-05 -3.778604e-07 -5.314207e-29)
(-1.643221e-05 -7.568425e-08 -2.408037e-29)
(-1.682058e-06 -3.708888e-07 0)
(-4.898577e-06 -2.97102e-07 2.106678e-29)
(-7.800299e-06 -7.960014e-08 -2.148099e-31)
(-1.021594e-05 3.052628e-07 -7.461292e-30)
(-1.203265e-05 8.298737e-07 -2.235966e-29)
(-1.322287e-05 1.487821e-06 -7.659078e-30)
(-1.379978e-05 2.322133e-06 -9.280633e-29)
(-1.429502e-06 -2.306819e-07 -5.063803e-30)
(-4.137168e-06 1.168445e-07 9.813075e-31)
(-6.540439e-06 5.825796e-07 1.123969e-31)
(-8.486038e-06 1.21832e-06 1.991118e-29)
(-9.857388e-06 2.015719e-06 0)
(-1.061569e-05 2.977202e-06 0)
(-1.067118e-05 4.22688e-06 4.333996e-29)
(-1.165872e-06 -1.282215e-07 -7.117219e-30)
(-3.354907e-06 4.151546e-07 3.263848e-30)
(-5.261533e-06 1.063449e-06 -6.150543e-30)
(-6.737214e-06 1.882479e-06 -6.165309e-30)
(-7.676897e-06 2.878825e-06 0)
(-7.994661e-06 4.106254e-06 0)
(-7.624385e-06 5.613833e-06 -1.150295e-29)
(-9.161339e-07 -5.900613e-08 4.535559e-30)
(-2.620154e-06 6.157917e-07 -5.410157e-30)
(-4.059075e-06 1.380992e-06 -5.593824e-30)
(-5.105236e-06 2.316482e-06 -1.135506e-29)
(-5.659296e-06 3.442318e-06 3.416281e-29)
(-5.619186e-06 4.810205e-06 4.905328e-29)
(-4.926313e-06 6.453656e-06 -1.723698e-29)
(-6.943547e-07 -1.874219e-08 2.104468e-30)
(-1.96921e-06 7.304077e-07 -2.808194e-30)
(-3.004848e-06 1.555658e-06 5.594307e-30)
(-3.691942e-06 2.54296e-06 5.631699e-30)
(-3.930335e-06 3.731843e-06 0)
(-3.64126e-06 5.139247e-06 -3.933888e-30)
(-2.825871e-06 6.758662e-06 -4.908257e-30)
(-5.086733e-07 -2.425907e-09 0)
(-1.42456e-06 7.734643e-07 -5.635122e-30)
(-2.131389e-06 1.610793e-06 -5.634903e-30)
(-2.531654e-06 2.613628e-06 3.325317e-29)
(-2.537091e-06 3.793797e-06 4.636853e-29)
(-2.094124e-06 5.160608e-06 -2.103823e-29)
(-1.240466e-06 6.696193e-06 -1.565054e-29)
(-3.577454e-07 -5.771555e-09 -2.2377e-30)
(-9.869693e-07 7.607804e-07 -2.824293e-30)
(-1.436224e-06 1.573885e-06 0)
(-1.617985e-06 2.545318e-06 -2.682756e-31)
(-1.457194e-06 3.678732e-06 -4.664125e-30)
(-9.574393e-07 4.955863e-06 -4.380604e-30)
(-1.089405e-07 6.384753e-06 -1.122426e-29)
(-2.412228e-07 -2.28649e-08 -4.607731e-30)
(-6.519564e-07 7.075525e-07 -2.727055e-30)
(-9.114819e-07 1.478399e-06 -3.962304e-29)
(-9.409836e-07 2.385537e-06 -1.753797e-29)
(-6.882759e-07 3.434001e-06 -1.007868e-29)
(-1.592759e-07 4.6133e-06 0)
(6.488758e-07 5.922396e-06 1.128693e-29)
(-1.544204e-07 -4.932252e-08 -1.06108e-30)
(-4.05596e-07 6.316707e-07 7.102632e-30)
(-5.226634e-07 1.33942e-06 -5.862683e-30)
(-4.463145e-07 2.168605e-06 0)
(-1.534584e-07 3.119881e-06 3.864907e-30)
(3.692651e-07 4.195365e-06 0)
(1.113143e-06 5.384473e-06 -3.390151e-30)
(-9.102893e-08 -8.146448e-08 0)
(-2.256542e-07 5.374396e-07 0)
(-2.48418e-07 1.172707e-06 8.249366e-30)
(-1.171957e-07 1.915786e-06 0)
(1.933686e-07 2.774667e-06 7.306803e-30)
(6.890487e-07 3.748347e-06 3.396669e-30)
(1.357516e-06 4.825478e-06 -3.278464e-30)
(-4.944753e-08 -1.161136e-07 3.163744e-30)
(-1.068863e-07 4.351631e-07 0)
(-7.103448e-08 9.94379e-07 6.775691e-30)
(9.125572e-08 1.655274e-06 -6.977704e-31)
(3.992712e-07 2.425452e-06 3.47622e-30)
(8.551815e-07 3.303818e-06 6.479334e-30)
(1.446939e-06 4.279164e-06 3.147228e-30)
(-2.036792e-08 -1.525288e-07 4.214074e-30)
(-2.792836e-08 3.32872e-07 5.149761e-30)
(3.939144e-08 8.188048e-07 0)
(2.115567e-07 1.402054e-06 2.307769e-30)
(5.026744e-07 2.090216e-06 5.752075e-30)
(9.116713e-07 2.883021e-06 3.895925e-31)
(1.426305e-06 3.770557e-06 -1.750882e-29)
(-3.663687e-09 -1.858336e-07 2.855271e-30)
(1.709565e-08 2.354954e-07 3.585036e-30)
(9.98656e-08 6.534622e-07 -3.334773e-30)
(2.691343e-07 1.165572e-06 0)
(5.35117e-07 1.77996e-06 0)
(8.945449e-07 2.498206e-06 2.973469e-30)
(1.336894e-06 3.321052e-06 4.453153e-29)
(5.568734e-09 -2.161624e-07 2.779555e-30)
(4.028979e-08 1.46218e-07 3.294611e-30)
(1.26574e-07 5.02288e-07 -3.248124e-30)
(2.849375e-07 9.504251e-07 0)
(5.229781e-07 1.499486e-06 5.784286e-30)
(8.378772e-07 2.152764e-06 -8.447195e-36)
(1.224944e-06 2.918794e-06 -6.015245e-30)
(9.566783e-09 -2.433349e-07 0)
(4.865553e-08 6.595044e-08 3.217024e-30)
(1.311853e-07 3.667321e-07 -3.014111e-30)
(2.742513e-07 7.582527e-07 0)
(4.838744e-07 1.250152e-06 -3.037386e-30)
(7.570856e-07 1.846982e-06 -1.168458e-29)
(1.087277e-06 2.558237e-06 -6.020761e-30)
(1.013667e-08 -2.674811e-07 -2.460705e-30)
(4.765423e-08 -5.266999e-09 -1.458268e-30)
(1.222439e-07 2.466932e-07 -4.408768e-30)
(2.482373e-07 5.886365e-07 -2.906807e-30)
(4.307518e-07 1.030944e-06 -2.839584e-30)
(6.670753e-07 1.579143e-06 2.711036e-30)
(9.487726e-07 2.242763e-06 0)
(8.603627e-09 -2.887535e-07 -4.768913e-30)
(4.113836e-08 -6.79109e-08 0)
(1.058619e-07 1.41228e-07 0)
(2.147974e-07 4.400124e-07 2.66733e-31)
(3.714716e-07 8.394172e-07 -2.302029e-30)
(5.723563e-07 1.350282e-06 2.714066e-30)
(8.14426e-07 1.973791e-06 0)
(6.05534e-09 -3.075284e-07 -2.314738e-30)
(3.214799e-08 -1.229559e-07 -1.462492e-30)
(8.668997e-08 4.885172e-08 -1.460195e-30)
(1.802573e-07 3.099198e-07 -2.982042e-30)
(3.162467e-07 6.716062e-07 -5.514488e-30)
(4.949541e-07 1.148534e-06 0)
(7.045859e-07 1.738865e-06 2.525186e-30)
(3.115312e-09 -3.240519e-07 -5.826824e-31)
(2.240306e-08 -1.714301e-07 4.363466e-31)
(6.721664e-08 -3.251816e-08 1.074711e-30)
(1.468045e-07 1.953717e-07 4.943874e-30)
(2.640743e-07 5.239033e-07 0)
(4.180065e-07 9.679841e-07 3.470147e-30)
(5.989414e-07 1.527039e-06 6.005376e-32)
(1.810075e-10 -3.388131e-07 2.665891e-30)
(1.291895e-08 -2.145635e-07 4.395219e-30)
(4.897428e-08 -1.048279e-07 3.478679e-30)
(1.162148e-07 9.363759e-08 -5.167276e-31)
(2.174969e-07 3.926328e-07 -2.949585e-30)
(3.500794e-07 8.072043e-07 3.441701e-30)
(5.07262e-07 1.337925e-06 5.495991e-31)
(-2.546612e-09 -3.521471e-07 2.056138e-30)
(4.392664e-09 -2.534473e-07 4.936877e-30)
(3.264424e-08 -1.700944e-07 2.409778e-30)
(8.83694e-08 1.654728e-09 0)
(1.726547e-07 2.761042e-07 -2.390665e-29)
(2.882601e-07 6.648271e-07 -3.000289e-29)
(4.283958e-07 1.166574e-06 -5.897603e-30)
(-4.910506e-09 -3.644333e-07 1.347375e-30)
(-2.787001e-09 -2.893865e-07 3.142781e-30)
(1.929005e-08 -2.305287e-07 4.403156e-30)
(6.709998e-08 -8.363504e-08 2.947411e-30)
(1.437041e-07 1.668769e-07 0)
(2.456811e-07 5.323604e-07 2.287396e-30)
(3.648501e-07 1.007184e-06 2.94162e-30)
(-6.867975e-09 -3.761301e-07 1.324959e-30)
(-8.617922e-09 -3.236363e-07 3.000126e-30)
(8.474628e-09 -2.881987e-07 2.938429e-30)
(4.932846e-08 -1.649913e-07 1.475165e-30)
(1.15957e-07 6.158619e-08 0)
(2.054301e-07 4.033222e-07 5.221584e-30)
(3.114066e-07 8.551498e-07 5.886768e-30)
(-8.427049e-09 -3.876152e-07 5.861874e-31)
(-1.301958e-08 -3.573617e-07 5.161176e-30)
(4.20623e-10 -3.448697e-07 1.470603e-30)
(3.60715e-08 -2.448123e-07 1.476526e-30)
(9.467578e-08 -4.181094e-08 0)
(1.739399e-07 2.765728e-07 0)
(2.685985e-07 7.062472e-07 0)
(-9.52071e-09 -3.992822e-07 0)
(-1.581935e-08 -3.916751e-07 2.16175e-30)
(-4.648719e-09 -4.02457e-07 0)
(2.750798e-08 -3.258538e-07 -5.035192e-30)
(7.978779e-08 -1.464362e-07 -3.009043e-30)
(1.507545e-07 1.485275e-07 -2.964712e-30)
(2.357286e-07 5.561173e-07 -4.895574e-30)
(-1.011356e-08 -4.115254e-07 1.676594e-30)
(-1.697443e-08 -4.278441e-07 0)
(-7.274551e-09 -4.631716e-07 2.953282e-30)
(2.022674e-08 -4.107886e-07 -2.299841e-29)
(6.852111e-08 -2.547957e-07 -2.186867e-29)
(1.351392e-07 1.52484e-08 0)
(2.123e-07 4.004397e-07 -1.933677e-30)
(-1.010322e-08 -4.249363e-07 1.65835e-30)
(-1.566045e-08 -4.675525e-07 0)
(-4.309126e-09 -5.296687e-07 1.479679e-30)
(2.547657e-08 -5.04092e-07 1.500708e-30)
(7.179497e-08 -3.731353e-07 4.108956e-30)
(1.301364e-07 -1.281658e-07 -1.906127e-30)
(1.989286e-07 2.345895e-07 1.840256e-30)
(-9.309693e-09 -4.401818e-07 0)
(-1.161442e-08 -5.129126e-07 3.377971e-30)
(2.982075e-09 -6.053675e-07 1.480627e-30)
(3.408256e-08 -6.094829e-07 -2.481556e-30)
(7.895685e-08 -5.063257e-07 1.99525e-30)
(1.334802e-07 -2.866393e-07 -1.891719e-30)
(1.95416e-07 5.362261e-08 3.833273e-32)
(-7.351202e-09 -4.583424e-07 0)
(-3.425491e-09 -5.669561e-07 1.877711e-30)
(1.719236e-08 -6.948939e-07 -1.817447e-30)
(5.196766e-08 -7.329289e-07 -9.612303e-31)
(9.692139e-08 -6.603933e-07 3.378751e-30)
(1.479067e-07 -4.668507e-07 2.957533e-30)
(2.028945e-07 -1.48596e-07 -1.77973e-30)
(-3.531213e-09 -4.80783e-07 0)
(1.111024e-08 -6.340796e-07 0)
(4.163064e-08 -8.053713e-07 -1.795727e-30)
(8.272904e-08 -8.831412e-07 2.340306e-30)
(1.288197e-07 -8.443612e-07 3.988367e-32)
(1.758827e-07 -6.774001e-07 0)
(2.22887e-07 -3.795569e-07 0)
(3.392289e-09 -5.100334e-07 1.395639e-30)
(3.546522e-08 -7.215292e-07 -1.700796e-30)
(8.137434e-08 -9.476122e-07 -2.329239e-30)
(1.316389e-07 -1.072876e-06 8.20579e-31)
(1.789988e-07 -1.071026e-06 -3.848708e-32)