/*--------------------------------*- C++ -*----------------------------------*\
| =========                 |                                                 |
| \\      /  F ield         | OpenFOAM: The Open Source CFD Toolbox           |
|  \\    /   O peration     | Version:  2206                                  |
|   \\  /    A nd           | Website:  www.openfoam.com                      |
|    \\/     M anipulation  |                                                 |
\*---------------------------------------------------------------------------*/
FoamFile
{
    version     2.0;
    format      ascii;
    arch        "LSB;label=32;scalar=64";
    class       volVectorField;
    location    "1.4";
    object      U.b;
}
// * * * * * * * * * * * * * * * * * * * * * * * * * * * * * * * * * * * * * //

dimensions      [0 1 -1 0 0 0 0];

internalField   nonuniform List<vector> 
13078
(
(-2.811076e-06 1.470362e-05 -2.545905e-27)
(-1.811127e-06 1.925705e-05 1.438574e-30)
(-1.597003e-06 1.808111e-05 1.908805e-27)
(-1.712796e-06 1.10035e-05 0)
(-1.805373e-06 6.547925e-06 4.058304e-28)
(-1.901671e-06 4.099567e-06 2.822204e-28)
(-2.001664e-06 2.439254e-06 1.932895e-28)
(8.942502e-06 7.844742e-07 0)
(6.00985e-06 1.795856e-05 -1.343799e-29)
(1.554156e-06 1.530498e-05 0)
(-1.128218e-06 1.008992e-05 0)
(-1.978074e-06 6.50239e-06 7.677715e-31)
(-2.277111e-06 4.165194e-06 6.684544e-31)
(-2.403507e-06 2.495945e-06 1.603538e-30)
(2.473479e-05 3.941742e-06 1.662986e-27)
(1.121042e-05 1.130864e-05 -9.527351e-28)
(3.278643e-06 1.096062e-05 -5.577938e-28)
(-2.702599e-07 8.758166e-06 -9.169327e-28)
(-1.784788e-06 6.318988e-06 -3.515138e-28)
(-2.397094e-06 4.314526e-06 0)
(-2.640373e-06 2.708749e-06 1.053588e-33)
(1.629959e-05 3.428215e-06 9.564324e-28)
(8.973437e-06 8.017235e-06 -1.31249e-27)
(3.620104e-06 8.663758e-06 -7.611894e-28)
(2.752978e-07 7.67661e-06 -1.737292e-28)
(-1.42849e-06 6.082361e-06 1.237166e-31)
(-2.28433e-06 4.44845e-06 0)
(-2.680856e-06 2.96849e-06 -1.534788e-30)
(1.08728e-05 2.720711e-06 3.199775e-30)
(6.986698e-06 6.289915e-06 -4.3832e-28)
(3.350571e-06 7.220903e-06 -5.647548e-28)
(6.706982e-07 6.839622e-06 -2.418611e-28)
(-1.060226e-06 5.794401e-06 3.259409e-28)
(-2.028732e-06 4.499856e-06 3.117191e-33)
(-2.566933e-06 3.187771e-06 -1.58479e-28)
(7.918355e-06 2.105962e-06 0)
(5.591318e-06 4.97968e-06 -1.098705e-29)
(3.028388e-06 6.04649e-06 1.418436e-29)
(8.699488e-07 6.062931e-06 -1.209847e-28)
(-6.877033e-07 5.41365e-06 -2.80722e-29)
(-1.739413e-06 4.438285e-06 1.893258e-28)
(-2.365926e-06 3.312396e-06 2.966275e-28)
(5.917228e-06 1.64332e-06 0)
(4.473766e-06 3.964859e-06 -2.615934e-28)
(2.665982e-06 5.042207e-06 -6.360399e-30)
(9.41047e-07 5.315773e-06 1.947452e-28)
(-4.350977e-07 4.967854e-06 -5.435758e-29)
(-1.44517e-06 4.246924e-06 -2.064867e-29)
(-2.158087e-06 3.333353e-06 0)
(4.440534e-06 1.315501e-06 4.625332e-28)
(3.520325e-06 3.201677e-06 -1.996611e-28)
(2.227882e-06 4.208942e-06 -1.456065e-28)
(8.885142e-07 4.60846e-06 0)
(-2.981704e-07 4.48011e-06 -5.16115e-29)
(-1.244748e-06 3.976109e-06 -1.781451e-29)
(-1.96098e-06 3.23406e-06 -1.448201e-29)
(3.301523e-06 1.085829e-06 -1.041094e-31)
(2.698137e-06 2.638394e-06 3.00719e-28)
(1.768401e-06 3.536704e-06 9.756518e-29)
(7.255189e-07 3.988272e-06 -1.641299e-29)
(-2.756294e-07 3.996288e-06 -8.526976e-29)
(-1.13783e-06 3.652462e-06 -1.523462e-29)
(-1.844823e-06 3.063056e-06 0)
(2.394499e-06 9.224195e-07 -2.464702e-28)
(1.986102e-06 2.219229e-06 2.188237e-28)
(1.306692e-06 3.000638e-06 8.134216e-29)
(4.912363e-07 3.453829e-06 -9.557868e-29)
(-3.479224e-07 3.538516e-06 3.636546e-31)
(-1.122554e-06 3.305312e-06 0)
(-1.805549e-06 2.832913e-06 0)
(1.653321e-06 8.034873e-07 0)
(1.367758e-06 1.90335e-06 0)
(8.606636e-07 2.573944e-06 1.085608e-28)
(2.155079e-07 2.999594e-06 -5.57415e-29)
(-4.90568e-07 3.117852e-06 -3.174893e-31)
(-1.184241e-06 2.952886e-06 0)
(-1.837692e-06 2.561819e-06 0)
(1.033596e-06 7.146436e-07 0)
(8.272488e-07 1.661021e-06 -9.132828e-29)
(4.392199e-07 2.232057e-06 5.925597e-29)
(-8.00856e-08 2.615005e-06 2.749855e-29)
(-6.801166e-07 2.737394e-06 5.005681e-29)
(-1.30319e-06 2.60671e-06 0)
(-1.925587e-06 2.263399e-06 -1.72899e-28)
(5.043906e-07 6.466779e-07 0)
(3.503278e-07 1.471701e-06 -3.484313e-29)
(4.541331e-08 1.955409e-06 6.950087e-30)
(-3.807999e-07 2.289258e-06 -1.891193e-29)
(-8.972114e-07 2.396617e-06 6.780288e-29)
(-1.459931e-06 2.274925e-06 -1.203366e-28)
(-2.049837e-06 1.951557e-06 -1.401506e-31)
(4.328821e-08 5.934999e-07 -2.535169e-30)
(-7.553729e-08 1.32123e-06 0)
(-3.217923e-07 1.729668e-06 5.952966e-30)
(-6.795196e-07 2.013189e-06 6.833543e-30)
(-1.130137e-06 2.09407e-06 1.915518e-28)
(-1.63974e-06 1.964839e-06 -1.427503e-28)
(-2.194052e-06 1.64277e-06 1.942911e-28)
(-3.666335e-07 5.511581e-07 3.998623e-29)
(-4.607534e-07 1.199734e-06 0)
(-6.637105e-07 1.542847e-06 1.024651e-29)
(-9.647846e-07 1.778431e-06 -1.680688e-28)
(-1.363655e-06 1.831701e-06 3.651154e-29)
(-1.83028e-06 1.686282e-06 0)
(-2.347781e-06 1.355376e-06 -2.119264e-28)
(-7.391143e-07 5.173997e-07 0)
(-8.153209e-07 1.101753e-06 8.363126e-29)
(-9.86671e-07 1.389366e-06 0)
(-1.251568e-06 1.582209e-06 -1.293284e-28)
(-1.602052e-06 1.602463e-06 -8.789092e-30)
(-2.029566e-06 1.441178e-06 -6.081531e-30)
(-2.510405e-06 1.099805e-06 -2.309562e-28)
(-1.086596e-06 4.90892e-07 0)
(-1.148985e-06 1.024263e-06 2.376215e-28)
(-1.294936e-06 1.266939e-06 3.855404e-30)
(-1.527592e-06 1.422097e-06 4.091097e-30)
(-1.843019e-06 1.412614e-06 0)
(-2.236436e-06 1.232139e-06 0)
(-2.68588e-06 8.816135e-07 0)
(-1.421041e-06 4.706584e-07 1.486811e-28)
(-1.472018e-06 9.645377e-07 1.541759e-28)
(-1.597227e-06 1.170921e-06 6.741789e-30)
(-1.803494e-06 1.2943e-06 3.430296e-30)
(-2.089279e-06 1.259311e-06 0)
(-2.453765e-06 1.060109e-06 2.326653e-28)
(-2.877276e-06 7.011338e-07 -5.980306e-30)
(-1.754582e-06 4.565401e-07 1.835791e-28)
(-1.794842e-06 9.222128e-07 1.877823e-28)
(-1.901214e-06 1.101357e-06 8.908276e-30)
(-2.08392e-06 1.199936e-06 5.754224e-30)
(-2.34596e-06 1.142132e-06 0)
(-2.684635e-06 9.247543e-07 2.534064e-28)
(-3.087135e-06 5.57646e-07 -4.856028e-30)
(-2.101002e-06 4.489438e-07 2.20408e-28)
(-2.129477e-06 8.983353e-07 4.431948e-28)
(-2.216075e-06 1.059595e-06 2.271575e-28)
(-2.373509e-06 1.138441e-06 0)
(-2.60989e-06 1.062414e-06 -1.780508e-29)
(-2.918187e-06 8.344252e-07 1.499157e-29)
(-3.311291e-06 4.555818e-07 1.306354e-29)
(-2.477068e-06 4.491409e-07 2.604379e-28)
(-2.490857e-06 8.964536e-07 5.175194e-28)
(-2.553885e-06 1.051577e-06 5.220738e-28)
(-2.68375e-06 1.118657e-06 2.651861e-28)
(-2.892982e-06 1.031699e-06 -1.840293e-30)
(-3.178896e-06 7.836565e-07 3.00599e-28)
(-3.551459e-06 3.943205e-07 -3.336171e-28)
(-2.904361e-06 4.590489e-07 0)
(-2.89839e-06 9.222874e-07 2.996228e-28)
(-2.930516e-06 1.085126e-06 2.989011e-28)
(-3.024987e-06 1.150437e-06 6.079277e-28)
(-3.19675e-06 1.05429e-06 0)
(-3.453446e-06 7.893495e-07 3.257752e-28)
(-3.803446e-06 3.825663e-07 1.624864e-31)
(-3.410788e-06 4.813245e-07 -3.568545e-28)
(-3.377234e-06 9.832005e-07 0)
(-3.367762e-06 1.170913e-06 0)
(-3.413892e-06 1.246151e-06 -3.574116e-30)
(-3.537961e-06 1.146895e-06 -3.455561e-28)
(-3.756695e-06 8.669627e-07 0)
(-4.07017e-06 4.362995e-07 3.672275e-28)
(-4.032337e-06 5.19678e-07 -8.427911e-28)
(-3.959697e-06 1.089482e-06 0)
(-3.892447e-06 1.325197e-06 0)
(-3.869956e-06 1.425274e-06 -3.853674e-28)
(-3.924816e-06 1.32845e-06 -7.634722e-28)
(-4.086504e-06 1.037143e-06 3.824914e-28)
(-4.331581e-06 5.850028e-07 0)
(-4.815583e-06 5.790252e-07 -5.0252e-28)
(-4.687938e-06 1.255251e-06 -2.729059e-30)
(-4.540246e-06 1.569841e-06 -4.700209e-28)
(-4.423417e-06 1.71661e-06 -5.02745e-30)
(-4.38078e-06 1.635284e-06 -2.009854e-30)
(-4.44922e-06 1.340912e-06 4.143454e-28)
(-4.634193e-06 8.445071e-07 0)
(-5.819995e-06 6.653656e-07 0)
(-5.615707e-06 1.497998e-06 5.831879e-28)
(-5.358848e-06 1.930739e-06 -5.518992e-28)
(-5.113295e-06 2.152931e-06 0)
(-4.933588e-06 2.103527e-06 4.742606e-28)
(-4.870064e-06 1.800908e-06 7.593171e-30)
(-4.947995e-06 1.254429e-06 1.949722e-29)
(-7.121174e-06 7.861424e-07 7.401297e-28)
(-6.813985e-06 1.837451e-06 7.076486e-28)
(-6.410832e-06 2.438123e-06 -6.609443e-28)
(-5.990081e-06 2.774427e-06 0)
(-5.625125e-06 2.780958e-06 1.288521e-29)
(-5.379467e-06 2.476334e-06 6.596328e-32)
(-5.301488e-06 1.873475e-06 1.584559e-29)
(-8.809105e-06 9.480653e-07 9.140756e-28)
(-8.368622e-06 2.295262e-06 8.685e-28)
(-7.774569e-06 3.130805e-06 -8.039213e-28)
(-7.12529e-06 3.629321e-06 0)
(-6.510865e-06 3.724361e-06 0)
(-6.010956e-06 3.433974e-06 5.637917e-28)
(-5.715322e-06 2.785431e-06 -5.928598e-28)
(-1.099024e-05 1.15739e-06 1.141164e-27)
(-1.038121e-05 2.89202e-06 1.085217e-27)
(-9.546774e-06 4.042182e-06 0)
(-8.609715e-06 4.77035e-06 -8.433627e-28)
(-7.672808e-06 5.008077e-06 3.443928e-29)
(-6.835346e-06 4.769923e-06 1.276471e-27)
(-6.196661e-06 4.106704e-06 -7.893575e-30)
(-1.378158e-05 1.429925e-06 1.425361e-27)
(-1.29791e-05 3.633501e-06 0)
(-1.184366e-05 5.201089e-06 1.256941e-27)
(-1.055522e-05 6.245577e-06 -1.06463e-27)
(-9.219238e-06 6.696665e-06 9.332664e-28)
(-7.9481e-06 6.559049e-06 1.53902e-27)
(-6.861364e-06 5.870343e-06 6.110927e-28)
(-1.733723e-05 1.735495e-06 0)
(-1.626383e-05 4.556923e-06 0)
(-1.480071e-05 6.62904e-06 3.094525e-27)
(-1.310209e-05 8.090796e-06 0)
(-1.129108e-05 8.852737e-06 2.324301e-27)
(-9.481383e-06 8.902032e-06 9.414161e-28)
(-7.803016e-06 8.250076e-06 -7.169955e-28)
(-2.173801e-05 2.110656e-06 2.256909e-27)
(-2.036346e-05 5.663058e-06 -2.097206e-27)
(-1.858802e-05 8.282027e-06 -1.928225e-27)
(-1.642903e-05 1.029986e-05 0)
(-1.407226e-05 1.151746e-05 1.474163e-27)
(-1.162756e-05 1.189443e-05 0)
(-9.199522e-06 1.140395e-05 -7.266841e-28)
(-2.708615e-05 2.51128e-06 2.797153e-27)
(-2.545567e-05 6.816152e-06 -2.666114e-27)
(-2.329093e-05 1.026259e-05 -7.36339e-27)
(-2.076555e-05 1.280644e-05 -4.490229e-27)
(-1.779514e-05 1.467782e-05 1.748172e-27)
(-1.464993e-05 1.559112e-05 -1.401646e-28)
(-1.132762e-05 1.54695e-05 1.232059e-28)
(-3.340135e-05 2.924883e-06 -8.209709e-30)
(-3.148567e-05 8.01413e-06 -2.209685e-29)
(-2.909568e-05 1.217171e-05 -3.234592e-27)
(-2.61793e-05 1.56071e-05 -5.395589e-27)
(-2.273801e-05 1.824998e-05 2.824456e-27)
(-1.889814e-05 1.998111e-05 -3.849732e-28)
(-1.45802e-05 2.057425e-05 -7.350429e-28)
(-4.062756e-05 3.304572e-06 9.386981e-30)
(-3.845087e-05 9.145188e-06 2.571182e-29)
(-3.591445e-05 1.407883e-05 -3.703881e-27)
(-3.282049e-05 1.848469e-05 -1.919608e-27)
(-2.926763e-05 2.188096e-05 2.165663e-27)
(-2.485744e-05 2.486044e-05 -2.206315e-27)
(-1.954778e-05 2.673609e-05 0)
(-4.856126e-05 3.578356e-06 0)
(-4.619556e-05 9.976577e-06 0)
(-4.370984e-05 1.55221e-05 -4.731022e-27)
(-4.090646e-05 2.068716e-05 -4.949407e-27)
(-3.740813e-05 2.564625e-05 -6.721765e-27)
(-3.315065e-05 2.972407e-05 -6.010856e-27)
(-2.701878e-05 3.368069e-05 0)
(-5.681814e-05 3.670842e-06 2.135477e-29)
(-5.436966e-05 1.029595e-05 -5.818662e-29)
(-5.216088e-05 1.620355e-05 -1.865812e-28)
(-4.995211e-05 2.196249e-05 0)
(-4.734069e-05 2.785946e-05 -1.063892e-26)
(-4.368861e-05 3.412431e-05 7.4632e-28)
(-3.791224e-05 4.066585e-05 1.761676e-27)
(-6.481411e-05 3.496646e-06 6.689319e-27)
(-6.242598e-05 9.848031e-06 -5.854807e-29)
(-6.076633e-05 1.568739e-05 6.670751e-27)
(-5.95697e-05 2.1733e-05 0)
(-5.842963e-05 2.852775e-05 -7.279896e-27)
(-5.633497e-05 3.683148e-05 -1.365093e-27)
(-5.320905e-05 4.578899e-05 9.537574e-27)
(-7.176489e-05 2.981402e-06 7.429016e-27)
(-6.960453e-05 8.396382e-06 7.423729e-27)
(-6.873088e-05 1.355054e-05 7.617358e-27)
(-6.894593e-05 1.921473e-05 4.524061e-28)
(-6.99389e-05 2.607746e-05 1.224659e-27)
(-7.097298e-05 3.500668e-05 -5.70197e-27)
(-7.123653e-05 4.751275e-05 4.405149e-27)
(-7.676727e-05 2.101995e-06 0)
(-7.497536e-05 5.795809e-06 -8.00627e-27)
(-7.505603e-05 9.538778e-06 -8.388947e-27)
(-7.691304e-05 1.40525e-05 -1.751574e-28)
(-8.042081e-05 2.013013e-05 9.795158e-27)
(-8.511866e-05 2.8947e-05 7.050775e-28)
(-8.98569e-05 4.276144e-05 0)
(-7.891745e-05 8.486697e-07 -8.24295e-27)
(-7.740076e-05 2.149288e-06 -1.6819e-26)
(-7.860962e-05 3.594389e-06 -8.759754e-27)
(-8.220191e-05 6.056484e-06 -1.904233e-26)
(-8.823445e-05 1.020467e-05 1.061275e-26)
(-9.64814e-05 1.69546e-05 -1.081792e-26)
(-0.0001098329 2.728131e-05 1.260481e-26)
(-7.72154e-05 -6.918102e-07 -8.100925e-27)
(-7.610139e-05 -2.437068e-06 -7.17087e-30)
(-7.79813e-05 -4.120627e-06 0)
(-8.345255e-05 -4.478933e-06 -6.869318e-29)
(-9.189881e-05 -2.848535e-06 -2.182348e-26)
(-0.0001064514 -2.012401e-06 -1.255117e-26)
(-0.0001436183 -1.27425e-05 3.356602e-26)
(-7.098853e-05 -2.441412e-06 7.487396e-27)
(-7.018004e-05 -7.656891e-06 7.44057e-29)
(-7.257068e-05 -1.2871e-05 1.248485e-28)
(-7.874316e-05 -1.731796e-05 1.727775e-26)
(-9.365283e-05 -2.226849e-05 -2.386251e-26)
(-0.0001318839 -4.667855e-05 -2.881276e-26)
(-0.0002176982 -0.0001085845 2.970362e-26)
(-5.984295e-05 -4.257936e-06 6.373972e-27)
(-5.923525e-05 -1.300681e-05 0)
(-6.153564e-05 -2.17105e-05 4.481408e-28)
(-6.895216e-05 -3.410119e-05 7.14366e-28)
(-0.0001026649 -6.886915e-05 1.368624e-26)
(-0.0001933732 -0.0001453283 3.099059e-26)
(-0.0003151757 -0.0002444856 7.057341e-26)
(-4.381077e-05 -5.987103e-06 0)
(-4.328879e-05 -1.757137e-05 3.598316e-28)
(-4.557421e-05 -3.077351e-05 6.491177e-27)
(-6.349053e-05 -6.832446e-05 8.175828e-27)
(-0.0001352845 -0.0001630101 1.614326e-26)
(-0.000256985 -0.0002918651 6.193946e-26)
(-0.0003691969 -0.0003883064 7.613105e-26)
(-2.316879e-05 -7.1413e-06 0)
(-2.204191e-05 -2.18224e-05 1.354552e-31)
(-2.873417e-05 -5.039066e-05 8.47841e-27)
(-7.65368e-05 -0.0001378684 2.25975e-26)
(-0.0001769761 -0.000289721 6.90828e-27)
(-0.0002819344 -0.0004342016 1.075592e-26)
(-0.000351272 -0.0005911388 -1.800594e-28)
(1.152916e-07 -6.866204e-06 2.849781e-28)
(2.403168e-06 -2.828436e-05 -2.353427e-28)
(-1.915586e-05 -9.587177e-05 5.139283e-32)
(-9.589492e-05 -0.000242749 2.290319e-26)
(-0.0001901647 -0.0004007492 1.755921e-26)
(-0.000259886 -0.0005860585 4.025414e-27)
(-0.0002893543 -0.0007814689 -3.884305e-26)
(2.34749e-05 -5.843717e-06 -2.174269e-27)
(2.158067e-05 -4.593635e-05 3.315216e-27)
(-2.005295e-05 -0.000164905 -3.748137e-27)
(-9.798092e-05 -0.0003355007 7.388023e-27)
(-0.0001655118 -0.0005213582 1.688038e-26)
(-0.0002054067 -0.0007326021 6.238866e-27)
(-0.0002593001 -0.0009714056 3.123023e-26)
(4.347974e-05 -9.47877e-06 -4.236859e-27)
(2.854142e-05 -7.946158e-05 3.238418e-27)
(-2.497768e-05 -0.0002315442 1.117235e-26)
(-8.111369e-05 -0.0004101964 7.456853e-27)
(-0.0001181778 -0.0006261683 1.358634e-26)
(-0.0001635258 -0.0008728619 1.212126e-26)
(-0.0002615617 -0.001186452 2.521397e-26)
(5.85355e-05 -2.238661e-05 -5.611658e-27)
(2.75803e-05 -0.0001240089 2.052958e-27)
(-2.705327e-05 -0.0002868585 8.514113e-27)
(-6.171976e-05 -0.0004836371 1.288002e-26)
(-9.055888e-05 -0.0007256172 1.153223e-26)
(-0.0001593688 -0.001024148 3.048315e-26)
(-0.0002807941 -0.001397297 1.995675e-26)
(6.658482e-05 -4.372309e-05 9.72397e-32)
(2.712242e-05 -0.0001733393 9.529384e-32)
(-1.832276e-05 -0.0003366423 4.878228e-27)
(-4.555723e-05 -0.0005531176 8.888743e-30)
(-8.588131e-05 -0.0008252086 -1.097952e-26)
(-0.0001748026 -0.001180361 -1.245181e-26)
(-0.0003032297 -0.001597523 -2.78133e-26)
(6.074739e-05 -6.419119e-05 -7.42666e-28)
(2.424744e-05 -0.0002125573 -2.223249e-27)
(-7.574306e-06 -0.0003876398 -6.551418e-29)
(-3.874058e-05 -0.0006217173 1.7007e-26)
(-9.306573e-05 -0.0009300086 -1.826973e-26)
(-0.000191163 -0.00133238 -1.441895e-25)
(-0.0003258682 -0.001779458 -8.51769e-26)
(3.697613e-05 -7.963239e-05 4.642066e-28)
(8.562515e-06 -0.0002394239 1.180508e-27)
(-1.315939e-05 -0.00042923 5.944929e-27)
(-4.432925e-05 -0.0006814522 8.544234e-27)
(-0.0001019398 -0.001018799 7.439115e-27)
(-0.0001969199 -0.001460459 -2.250962e-27)
(-0.0003255585 -0.001949607 -4.298782e-26)
(3.400632e-06 -9.143056e-05 -2.648223e-28)
(-1.826243e-05 -0.0002636723 -1.416447e-27)
(-3.688819e-05 -0.0004641557 -4.451974e-28)
(-6.259006e-05 -0.0007307024 -2.18878e-27)
(-0.0001128366 -0.001095106 -3.560664e-27)
(-0.0001941918 -0.00156463 -2.000661e-26)
(-0.0003030889 -0.002077272 1.075577e-26)
(-3.128501e-05 -0.0001000927 3.884176e-31)
(-4.766291e-05 -0.0002827607 -1.19958e-27)
(-6.356719e-05 -0.0004904233 8.440501e-30)
(-8.526226e-05 -0.0007678875 2.329045e-30)
(-0.0001232268 -0.001152598 -5.221811e-27)
(-0.0001810924 -0.001639424 -2.070979e-26)
(-0.0002557287 -0.002165631 -2.597685e-26)
(-7.004268e-05 -0.000106545 -6.101951e-28)
(-8.077727e-05 -0.0002959799 3.297034e-27)
(-9.526602e-05 -0.0005066257 -1.694902e-29)
(-0.0001130931 -0.0007892932 -2.345761e-27)
(-0.0001343882 -0.001183005 8.438706e-27)
(-0.0001597974 -0.00167472 -2.565281e-27)
(-0.0001877215 -0.002201135 -1.956211e-26)
(-0.0001090538 -0.000108438 -3.305026e-27)
(-0.0001118257 -0.0003000486 -1.301025e-27)
(-0.0001244349 -0.0005113682 4.760879e-28)
(-0.0001382542 -0.0007933162 -7.089929e-27)
(-0.0001420693 -0.001183283 8.317562e-27)
(-0.0001336964 -0.001668519 2.327076e-27)
(-0.0001136245 -0.002185387 -3.809649e-26)
(-0.0001381037 -0.0001046127 -3.424944e-27)
(-0.0001330202 -0.0002935621 -6.411864e-27)
(-0.0001430095 -0.0005038163 6.073156e-27)
(-0.0001540624 -0.0007799907 1.493488e-26)
(-0.0001448646 -0.001155515 7.829077e-27)
(-0.0001103653 -0.001625217 -2.487829e-27)
(-5.338303e-05 -0.002126208 2.636329e-27)
(-0.0001587194 -9.838713e-05 8.737541e-32)
(-0.000146356 -0.0002813295 -1.440296e-26)
(-0.0001517428 -0.0004870387 8.025391e-27)
(-0.0001606185 -0.0007534475 9.169908e-27)
(-0.0001438975 -0.001106231 5.894161e-30)
(-9.326614e-05 -0.00155269 -6.433901e-27)
(-1.446939e-05 -0.002030257 -2.881626e-26)
(-0.0001724199 -8.905307e-05 5.236587e-28)
(-0.0001505387 -0.0002647999 -6.113726e-27)
(-0.0001482066 -0.0004626738 1.429756e-26)
(-0.0001500228 -0.0007163315 3.118305e-29)
(-0.0001278025 -0.001040725 -1.580931e-26)
(-6.714163e-05 -0.001456015 -2.434498e-31)
(2.336661e-05 -0.001905461 1.107605e-25)
(-0.0001698303 -7.49013e-05 4.892733e-31)
(-0.0001356771 -0.0002434658 -1.188958e-26)
(-0.0001129488 -0.0004300925 -6.848551e-27)
(-0.0001072868 -0.0006651914 -1.700549e-28)
(-8.95941e-05 -0.0009601204 3.852725e-26)
(-3.119175e-05 -0.001334196 5.102866e-28)
(5.801834e-05 -0.001747061 -9.499156e-26)
(-0.0001469173 -5.371169e-05 -1.199668e-27)
(-0.0001069056 -0.0002018193 -9.661103e-27)
(-6.235659e-05 -0.0003777634 -1.294598e-26)
(-5.105097e-05 -0.0006003554 2.406234e-27)
(-4.616404e-05 -0.0008670523 8.486694e-30)
(-4.89569e-07 -0.001195469 -2.902794e-26)
(8.154282e-05 -0.00157662 -7.757157e-27)
(-0.0001128093 -3.106481e-05 1.109941e-26)
(-8.106798e-05 -0.0001493044 -7.232044e-27)
(-2.426157e-05 -0.0003293454 -8.189844e-27)
(5.803996e-06 -0.0005326272 -6.932264e-27)
(1.150035e-05 -0.00077343 2.888433e-29)
(4.272697e-05 -0.001048694 4.738654e-27)
(0.0001250359 -0.001382057 1.305925e-26)
(-7.502836e-05 -1.787954e-05 7.316396e-27)
(-5.913679e-05 -0.0001018245 -3.966044e-27)
(-2.596547e-06 -0.0002681101 3.085717e-27)
(6.067217e-05 -0.0004565912 -1.057718e-29)
(9.559336e-05 -0.000668459 1.85746e-26)
(0.0001197898 -0.0008977309 1.76298e-26)
(0.0001892798 -0.001166495 -4.430784e-28)
(-3.544134e-05 -1.360492e-05 -3.293331e-27)
(-3.151052e-05 -6.65997e-05 -1.656175e-27)
(1.266507e-05 -0.0001919661 2.237126e-27)
(9.96819e-05 -0.0003723277 -5.201005e-30)
(0.0001789948 -0.0005507416 4.274696e-26)
(0.0002232491 -0.0007460837 2.483184e-26)
(0.000262524 -0.0009473212 -3.818389e-26)
(3.749595e-06 -1.326044e-05 6.390613e-28)
(4.40454e-06 -4.635518e-05 2.047591e-27)
(2.916554e-05 -0.0001187502 7.153273e-27)
(0.0001089347 -0.0002658137 -3.947441e-27)
(0.0002164557 -0.0004259728 3.993156e-26)
(0.0003022263 -0.0005864643 2.718123e-26)
(0.0003458588 -0.0007492739 -2.244974e-26)
(3.959405e-05 -1.204292e-05 0)
(4.130523e-05 -3.655266e-05 8.410071e-32)
(5.21261e-05 -7.212713e-05 -6.795219e-27)
(0.0001011961 -0.0001569495 -5.37685e-26)
(0.0002042584 -0.0003045716 2.378524e-26)
(0.0003248148 -0.0004357248 2.005961e-26)
(0.0004165771 -0.0005538226 9.45228e-26)
(6.967084e-05 -9.738743e-06 0)
(7.151067e-05 -2.861721e-05 -6.517428e-28)
(7.812722e-05 -4.883977e-05 -1.043985e-26)
(0.0001003078 -8.889281e-05 -2.128831e-27)
(0.0001711041 -0.0001731592 7.354215e-27)
(0.0002951332 -0.0002941136 -1.169171e-25)
(0.000418075 -0.0003750498 -8.986812e-26)
(9.263299e-05 -6.953588e-06 9.696636e-27)
(9.409057e-05 -2.105383e-05 0)
(0.0001002209 -3.494464e-05 0)
(0.0001129684 -5.124599e-05 1.317798e-26)
(0.0001500288 -8.449249e-05 2.656788e-31)
(0.0002343659 -0.0001494447 -1.087121e-27)
(0.0003580998 -0.0002394054 -1.586835e-25)
(0.0001085735 -4.287413e-06 1.12814e-26)
(0.0001095734 -1.316025e-05 -1.508387e-28)
(0.000115238 -2.185723e-05 -2.49128e-28)
(0.0001261067 -2.944304e-05 -3.189964e-27)
(0.00014626 -3.654912e-05 -2.116704e-27)
(0.0001874312 -5.691681e-05 4.498374e-26)
(0.0002702554 -9.963921e-05 -1.194836e-25)
(0.0001178411 -1.837872e-06 0)
(0.0001183213 -5.830404e-06 -1.264025e-26)
(0.0001230494 -9.577516e-06 0)
(0.0001325558 -1.15897e-05 -2.994034e-28)
(0.0001462928 -1.114133e-05 -2.871521e-28)
(0.0001671754 -8.968794e-06 6.262209e-28)
(0.0002081451 -1.169199e-05 -4.478494e-26)
(0.0001211427 2.751662e-07 0)
(0.0001210428 4.993661e-07 1.278543e-26)
(0.0001246914 1.138614e-06 -1.349569e-26)
(0.0001317113 3.163384e-06 0)
(0.0001421465 7.607875e-06 2.01999e-28)
(0.0001561983 1.584622e-05 -1.595397e-26)
(0.0001742674 2.910463e-05 1.293233e-27)
(0.0001194341 1.99786e-06 0)
(0.0001188519 5.602606e-06 3.744544e-26)
(0.0001209894 9.501178e-06 9.580182e-30)
(0.0001256613 1.462583e-05 2.777363e-26)
(0.0001329561 2.189516e-05 9.080949e-28)
(0.0001418382 3.282413e-05 -1.541263e-26)
(0.0001511561 4.93154e-05 6.413797e-27)
(0.0001139126 3.266864e-06 -1.168122e-26)
(0.0001127797 9.354658e-06 1.188216e-26)
(0.0001136131 1.544002e-05 -8.778812e-31)
(0.0001162206 2.249556e-05 2.458847e-26)
(0.0001200861 3.133844e-05 0)
(0.0001245467 4.28443e-05 0)
(0.0001292142 5.878706e-05 2.406148e-26)
(0.0001056981 4.090121e-06 -1.079265e-26)
(0.0001041588 1.174509e-05 1.089102e-26)
(0.0001038728 1.917859e-05 -1.092606e-26)
(0.00010464 2.713236e-05 -1.10971e-26)
(0.0001056895 3.650998e-05 0)
(0.0001063244 4.802019e-05 0)
(0.0001070635 6.107786e-05 1.316121e-26)
(9.586785e-05 4.507799e-06 9.797719e-27)
(9.408667e-05 1.293707e-05 1.000263e-26)
(9.301155e-05 2.084628e-05 2.295802e-28)
(9.220154e-05 2.909857e-05 -9.348947e-27)
(9.118738e-05 3.808995e-05 -2.27394e-27)
(8.99069e-05 4.776462e-05 1.554796e-26)
(8.66491e-05 5.906476e-05 -7.564075e-27)
(8.537234e-05 4.584546e-06 8.73668e-27)
(8.354371e-05 1.31139e-05 7.475584e-29)
(8.186805e-05 2.104756e-05 -2.352992e-28)
(8.008028e-05 2.89352e-05 -3.233748e-28)
(7.785299e-05 3.709272e-05 0)
(7.500055e-05 4.531964e-05 8.449524e-27)
(7.046168e-05 5.403624e-05 -7.114502e-27)
(7.491431e-05 4.44712e-06 0)
(7.314951e-05 1.263339e-05 1.409654e-28)
(7.116188e-05 2.019256e-05 2.267256e-28)
(6.871738e-05 2.758017e-05 -1.608925e-26)
(6.609869e-05 3.433099e-05 -2.738952e-27)
(6.233186e-05 4.137904e-05 -1.166103e-26)
(5.774718e-05 4.794138e-05 -4.684983e-27)
(6.501585e-05 4.13038e-06 2.318873e-29)
(6.336236e-05 1.172435e-05 6.610911e-29)
(6.131613e-05 1.858882e-05 0)
(5.882051e-05 2.505665e-05 1.649679e-29)
(5.569581e-05 3.114716e-05 -5.60904e-27)
(5.206902e-05 3.675892e-05 -5.168412e-27)
(4.777608e-05 4.17754e-05 8.7769e-28)
(5.595018e-05 3.750212e-06 -5.682155e-27)
(5.446265e-05 1.061846e-05 5.684858e-27)
(5.243834e-05 1.682912e-05 -9.710363e-27)
(5.012754e-05 2.232022e-05 1.111991e-26)
(4.707714e-05 2.753734e-05 -4.386862e-27)
(4.374581e-05 3.209175e-05 0)
(3.992944e-05 3.601373e-05 -7.457462e-28)
(4.78471e-05 3.348278e-06 -4.88281e-27)
(4.650558e-05 9.466226e-06 4.661777e-27)
(4.479335e-05 1.474615e-05 -4.459994e-27)
(4.252987e-05 1.968045e-05 0)
(3.989509e-05 2.401604e-05 3.939377e-27)
(3.696078e-05 2.774789e-05 0)
(3.369693e-05 3.088693e-05 -3.1685e-27)
(4.075626e-05 2.937777e-06 0)
(3.967437e-05 8.239122e-06 0)
(3.810837e-05 1.291565e-05 7.641593e-27)
(3.615966e-05 1.711483e-05 0)
(3.390689e-05 2.076381e-05 6.635524e-27)
(3.139667e-05 2.387292e-05 3.007303e-27)
(2.865239e-05 2.647067e-05 -2.654215e-27)
(3.46133e-05 2.593473e-06 3.513466e-27)
(3.376804e-05 7.150103e-06 0)
(3.243217e-05 1.118435e-05 3.178586e-27)
(3.07927e-05 1.477747e-05 -3.124144e-27)
(2.889609e-05 1.787675e-05 2.806228e-27)
(2.67986e-05 2.048725e-05 5.085608e-27)
(2.452638e-05 2.263108e-05 2.247482e-27)
(2.939452e-05 2.253051e-06 2.976311e-27)
(2.867939e-05 6.220097e-06 2.870049e-27)
(2.760273e-05 9.661155e-06 0)
(2.624992e-05 1.273833e-05 -2.719123e-27)
(2.468609e-05 1.538413e-05 -1.622992e-28)
(2.29697e-05 1.759617e-05 4.510502e-27)
(2.113158e-05 1.938654e-05 5.737788e-28)
(2.493666e-05 1.972755e-06 2.530934e-27)
(2.436033e-05 5.397908e-06 2.448774e-27)
(2.349341e-05 8.349424e-06 -2.338382e-27)
(2.239127e-05 1.100049e-05 0)
(2.111802e-05 1.328162e-05 0)
(1.971944e-05 1.520581e-05 1.849081e-27)
(1.820157e-05 1.682311e-05 -2.876919e-27)
(2.113929e-05 1.73359e-06 2.145359e-27)
(2.068031e-05 4.702847e-06 2.078875e-27)
(1.998611e-05 7.243765e-06 -1.985153e-27)
(1.909571e-05 9.537597e-06 0)
(1.806416e-05 1.151242e-05 -1.207905e-28)
(1.692428e-05 1.31717e-05 -2.163891e-31)
(1.567196e-05 1.452661e-05 1.411943e-28)
(1.789849e-05 1.534761e-06 0)
(1.753551e-05 4.122908e-06 1.761415e-27)
(1.698065e-05 6.321999e-06 -1.686341e-27)
(1.626443e-05 8.316708e-06 0)
(1.543091e-05 1.003412e-05 1.58462e-27)
(1.450439e-05 1.147487e-05 2.323618e-28)
(1.347394e-05 1.264538e-05 1.220398e-28)
(1.512315e-05 1.371016e-06 -1.536303e-27)
(1.483524e-05 3.644486e-06 1.010628e-29)
(1.43917e-05 5.559458e-06 -1.41229e-27)
(1.381673e-05 7.303157e-06 3.960908e-29)
(1.31443e-05 8.801743e-06 4.524349e-29)
(1.239034e-05 1.005405e-05 1.152751e-27)
(1.154242e-05 1.106018e-05 0)
(1.273318e-05 1.237198e-06 -2.588042e-27)
(1.250266e-05 3.252358e-06 0)
(1.214696e-05 4.932184e-06 0)
(1.168457e-05 6.467361e-06 -1.176654e-27)
(1.11378e-05 7.787196e-06 -2.170901e-27)
(1.05023e-05 8.893996e-06 9.753096e-28)
(9.817703e-06 9.718708e-06 0)
(1.066082e-05 1.128213e-06 -1.083948e-27)
(1.047378e-05 2.931826e-06 8.243401e-30)
(1.01871e-05 4.416584e-06 1.243231e-29)
(9.814556e-06 5.775054e-06 3.254533e-29)
(9.371552e-06 6.932418e-06 -8.575212e-28)
(8.85741e-06 7.876662e-06 0)
(8.275944e-06 8.610236e-06 7.401571e-28)
(8.849778e-06 1.039708e-06 1.592336e-30)
(8.695891e-06 2.670369e-06 8.861747e-28)
(8.464054e-06 3.993359e-06 8.516206e-28)
(8.164243e-06 5.203223e-06 1.593134e-27)
(7.807297e-06 6.224848e-06 0)
(7.390272e-06 7.046085e-06 6.719301e-28)
(6.908962e-06 7.667426e-06 -7.818692e-31)
(7.253853e-06 9.680549e-07 7.374194e-28)
(7.125754e-06 2.457958e-06 1.437536e-27)
(6.938773e-06 3.647282e-06 1.387631e-27)
(6.699877e-06 4.73209e-06 6.794367e-28)
(6.415242e-06 5.63814e-06 3.044129e-29)
(6.08096e-06 6.350373e-06 5.496049e-28)
(5.691333e-06 6.869077e-06 -5.372544e-28)
(5.834893e-06 9.106511e-07 5.94869e-28)
(5.727438e-06 2.287133e-06 1.153104e-27)
(5.577721e-06 3.368053e-06 5.530534e-28)
(5.388453e-06 4.352335e-06 0)
(5.152684e-06 5.168509e-06 2.176864e-28)
(4.901834e-06 5.768653e-06 2.882596e-28)
(4.598076e-06 6.195386e-06 5.825378e-29)
(4.561446e-06 8.65163e-07 4.672393e-28)
(4.471325e-06 2.151083e-06 4.469198e-28)
(4.354212e-06 3.143444e-06 -2.785049e-29)
(4.211004e-06 4.040109e-06 -2.3333e-29)
(4.039098e-06 4.763535e-06 0)
(3.839551e-06 5.296686e-06 3.482102e-28)
(3.61781e-06 5.631067e-06 -2.662318e-29)
(3.40752e-06 8.300908e-07 3.499627e-28)
(3.333085e-06 2.045466e-06 3.326508e-28)
(3.246464e-06 2.967323e-06 -1.782205e-29)
(3.146775e-06 3.793442e-06 -1.114259e-29)
(3.029799e-06 4.446283e-06 0)
(2.890361e-06 4.907935e-06 2.312507e-28)
(2.740108e-06 5.165265e-06 -4.926433e-29)
(2.350818e-06 8.045611e-07 -1.324858e-30)
(2.291885e-06 1.967876e-06 4.58013e-28)
(2.235748e-06 2.836035e-06 -8.672238e-30)
(2.17954e-06 3.60658e-06 -1.080242e-29)
(2.117703e-06 4.200567e-06 0)
(2.042093e-06 4.598596e-06 0)
(1.959757e-06 4.78739e-06 0)
(1.371609e-06 7.882699e-07 0)
(1.329358e-06 1.917195e-06 1.330347e-28)
(1.306062e-06 2.74716e-06 0)
(1.295334e-06 3.476077e-06 -9.685982e-29)
(1.291274e-06 4.022347e-06 2.356932e-29)
(1.281176e-06 4.36612e-06 2.396366e-29)
(1.268858e-06 4.49379e-06 -7.13232e-29)
(4.513304e-07 7.815404e-07 4.843398e-29)
(4.277689e-07 1.894742e-06 0)
(4.398259e-07 2.704484e-06 -1.725176e-29)
(4.703048e-07 3.408985e-06 1.140298e-28)
(5.383466e-07 3.911267e-06 2.226527e-28)
(5.976763e-07 4.207614e-06 0)
(6.590163e-07 4.282282e-06 -3.422125e-29)
(-4.280091e-07 7.847291e-07 -4.111409e-29)
(-4.289466e-07 1.900578e-06 0)
(-3.737123e-07 2.703576e-06 -8.833138e-30)
(-2.785771e-07 3.388202e-06 -1.090591e-29)
(-1.527599e-07 3.867959e-06 -7.175682e-29)
(-1.660158e-08 4.121429e-06 2.718691e-29)
(1.20082e-07 4.151922e-06 -1.871051e-29)
(-1.28426e-06 7.991543e-07 0)
(-1.25613e-06 1.938017e-06 -1.364609e-28)
(-1.147963e-06 2.750193e-06 -9.217908e-30)
(-9.835557e-07 3.428494e-06 1.18439e-28)
(-7.836335e-07 3.886573e-06 -1.01049e-28)
(-5.694715e-07 4.105202e-06 8.42833e-29)
(-3.58585e-07 4.096923e-06 -2.951337e-31)
(-2.136826e-06 8.271651e-07 0)
(-2.069197e-06 2.013034e-06 -2.140832e-28)
(-1.892553e-06 2.851081e-06 2.021825e-28)
(-1.643431e-06 3.530705e-06 1.763787e-28)
(-1.355971e-06 3.967427e-06 -1.745349e-28)
(-1.062095e-06 4.149533e-06 -2.646085e-29)
(-7.831258e-07 4.100721e-06 1.118903e-28)
(-3.008192e-06 8.72459e-07 0)
(-2.884635e-06 2.134339e-06 0)
(-2.616463e-06 3.015081e-06 2.792955e-28)
(-2.260739e-06 3.700084e-06 -2.55089e-28)
(-1.870313e-06 4.109919e-06 -3.761184e-31)
(-1.491727e-06 4.244482e-06 0)
(-1.151447e-06 4.141493e-06 0)
(-3.925611e-06 9.407172e-07 -3.984267e-28)
(-3.719771e-06 2.315082e-06 3.868502e-28)
(-3.325195e-06 3.255338e-06 1.900178e-28)
(-2.831478e-06 3.944055e-06 -3.05775e-28)
(-2.317727e-06 4.312671e-06 3.964595e-31)
(-1.847524e-06 4.378798e-06 -3.082902e-29)
(-1.451581e-06 4.19745e-06 3.488397e-33)
(-4.924197e-06 1.040929e-06 -8.978887e-32)
(-4.593058e-06 2.575138e-06 4.810569e-28)
(-4.02005e-06 3.590311e-06 2.31212e-28)
(-3.345137e-06 4.271954e-06 1.628631e-29)