/*--------------------------------*- C++ -*----------------------------------*\
| =========                 |                                                 |
| \\      /  F ield         | OpenFOAM: The Open Source CFD Toolbox           |
|  \\    /   O peration     | Version:  2206                                  |
|   \\  /    A nd           | Website:  www.openfoam.com                      |
|    \\/     M anipulation  |                                                 |
\*---------------------------------------------------------------------------*/
FoamFile
{
    version     2.0;
    format      ascii;
    arch        "LSB;label=32;scalar=64";
    class       volVectorField;
    location    "1.4";
    object      U.b_0;
}
// * * * * * * * * * * * * * * * * * * * * * * * * * * * * * * * * * * * * * //

dimensions      [0 1 -1 0 0 0 0];

internalField   nonuniform List<vector> 
13078
(
(-2.709248e-06 1.400283e-05 -2.4918e-27)
(-1.773831e-06 1.906045e-05 1.409143e-30)
(-1.565067e-06 1.766373e-05 1.879423e-27)
(-1.678709e-06 1.065608e-05 0)
(-1.770532e-06 6.204619e-06 3.952879e-28)
(-1.866475e-06 3.727303e-06 2.713127e-28)
(-1.966464e-06 2.033843e-06 1.818363e-28)
(9.107186e-06 8.349391e-07 0)
(5.958277e-06 1.76879e-05 -1.326398e-29)
(1.588085e-06 1.498927e-05 0)
(-1.058604e-06 9.778867e-06 0)
(-1.899993e-06 6.166348e-06 7.17961e-31)
(-2.195999e-06 3.795153e-06 6.40419e-31)
(-2.323371e-06 2.089972e-06 1.54657e-30)
(2.460384e-05 3.903618e-06 1.650093e-27)
(1.122097e-05 1.113962e-05 -9.482933e-28)
(3.370488e-06 1.073058e-05 -5.49631e-28)
(-1.504741e-07 8.475631e-06 -8.988244e-28)
(-1.654773e-06 5.991868e-06 -3.415981e-28)
(-2.265875e-06 3.944661e-06 0)
(-2.513318e-06 2.298568e-06 9.881849e-34)
(1.637268e-05 3.37646e-06 9.586513e-28)
(9.110973e-06 7.87461e-06 -1.32135e-27)
(3.790342e-06 8.449747e-06 -7.731104e-28)
(4.599954e-07 7.404393e-06 -1.806261e-28)
(-1.239605e-06 5.755564e-06 3.942198e-31)
(-2.099103e-06 4.072397e-06 0)
(-2.504897e-06 2.547946e-06 -1.403498e-30)
(1.107935e-05 2.669291e-06 3.150142e-30)
(7.219364e-06 6.148121e-06 -4.49186e-28)
(3.600113e-06 7.006627e-06 -5.871329e-28)
(9.255668e-07 6.561678e-06 -2.656188e-28)
(-8.092619e-07 5.459649e-06 3.266155e-28)
(-1.786849e-06 4.110376e-06 2.495937e-33)
(-2.339963e-06 2.749538e-06 -1.469554e-28)
(8.222067e-06 2.056102e-06 0)
(5.909893e-06 4.838404e-06 -1.073443e-29)
(3.355345e-06 5.827214e-06 1.379593e-29)
(1.196222e-06 5.774111e-06 -1.363095e-28)
(-3.707583e-07 5.061775e-06 -2.684202e-29)
(-1.438748e-06 4.029656e-06 1.783078e-28)
(-2.08545e-06 2.850242e-06 2.71535e-28)
(6.315928e-06 1.594013e-06 0)
(4.879389e-06 3.821819e-06 -2.817616e-28)
(3.072842e-06 4.814648e-06 -3.234735e-29)
(1.342744e-06 5.012289e-06 1.866114e-28)
(-4.868217e-08 4.594558e-06 -7.158954e-29)
(-1.080383e-06 3.810919e-06 -1.918616e-29)
(-1.821565e-06 2.841668e-06 0)
(4.936613e-06 1.26529e-06 5.132567e-28)
(4.017966e-06 3.05394e-06 -2.247105e-28)
(2.721539e-06 3.970468e-06 -1.701201e-28)
(1.370493e-06 4.285817e-06 0)
(1.63056e-07 4.080319e-06 -9.63485e-29)
(-8.114171e-07 3.507054e-06 -1.626112e-29)
(-1.562445e-06 2.703446e-06 -1.273237e-29)
(3.900295e-06 1.033299e-06 -9.723129e-32)
(3.294634e-06 2.482539e-06 3.611267e-28)
(2.355856e-06 3.282668e-06 1.278137e-28)
(1.295377e-06 3.641707e-06 -1.527097e-29)
(2.670625e-07 3.564317e-06 -1.90182e-28)
(-6.29924e-07 3.143712e-06 -1.356465e-29)
(-1.379511e-06 2.486147e-06 0)
(3.103653e-06 8.663265e-07 -3.193276e-28)
(2.690021e-06 2.052053e-06 2.903851e-28)
(1.996869e-06 2.726561e-06 1.160815e-28)
(1.157831e-06 3.077901e-06 -1.615166e-28)
(2.844639e-07 3.067959e-06 3.216754e-31)
(-5.326661e-07 2.749351e-06 0)
(-1.267057e-06 2.200995e-06 0)
(2.482683e-06 7.426657e-07 0)
(2.189377e-06 1.721668e-06 0)
(1.664036e-06 2.275071e-06 1.896628e-28)
(9.891508e-07 2.588217e-06 -1.326451e-28)
(2.413264e-07 2.601407e-06 -2.697749e-31)
(-5.035448e-07 2.341177e-06 0)
(-1.218171e-06 1.865101e-06 0)
(1.995113e-06 6.479754e-07 0)
(1.778692e-06 1.461599e-06 -1.883937e-28)
(1.367938e-06 1.903336e-06 1.532442e-28)
(8.125677e-07 2.161617e-06 1.149623e-28)
(1.626469e-07 2.166919e-06 -3.555613e-29)
(-5.210224e-07 1.929621e-06 0)
(-1.215476e-06 1.490918e-06 -9.857021e-29)
(1.612169e-06 5.730055e-07 0)
(1.445736e-06 1.251158e-06 -1.474399e-28)
(1.113512e-06 1.591497e-06 5.778544e-30)
(6.444775e-07 1.786652e-06 8.349281e-29)
(6.960681e-08 1.763268e-06 -2.844527e-29)
(-5.639274e-07 1.521943e-06 -3.180269e-29)
(-1.237548e-06 1.091045e-06 -6.50484e-32)
(1.313763e-06 5.116436e-07 -1.334581e-28)
(1.180177e-06 1.076022e-06 0)
(9.017597e-07 1.324704e-06 4.655035e-30)
(4.938133e-07 1.453687e-06 5.035303e-30)
(-2.37878e-08 1.388421e-06 -2.909146e-29)
(-6.157254e-07 1.124616e-06 -4.127751e-29)
(-1.266312e-06 6.806947e-07 1.030935e-28)
(1.085569e-06 4.598169e-07 -1.097128e-28)
(9.740523e-07 9.259558e-07 0)
(7.33836e-07 1.090378e-06 7.361136e-30)
(3.740499e-07 1.152401e-06 -6.653025e-30)
(-9.874709e-08 1.0448e-06 -5.074076e-29)
(-6.622591e-07 7.465383e-07 0)
(-1.290276e-06 2.775855e-07 -1.078806e-28)
(9.165479e-07 4.151197e-07 0)
(8.200919e-07 7.952795e-07 -8.357705e-29)
(6.060971e-07 8.833526e-07 0)
(2.760281e-07 8.838229e-07 2.908926e-29)
(-1.617477e-07 7.203702e-07 -3.146238e-30)
(-7.002457e-07 3.874318e-07 6.875034e-31)
(-1.306649e-06 -1.081315e-07 -1.044845e-28)
(7.97362e-07 3.761598e-07 0)
(7.116167e-07 6.804193e-07 -1.428613e-28)
(5.167657e-07 6.991934e-07 2.044614e-30)
(2.098864e-07 6.38658e-07 1.585391e-30)
(-2.057386e-07 4.223128e-07 0)
(-7.260467e-07 4.938056e-08 0)
(-1.31728e-06 -4.732835e-07 0)
(7.196231e-07 3.417933e-07 -7.17215e-29)
(6.417476e-07 5.781584e-07 -6.254543e-29)
(4.606391e-07 5.328549e-07 2.672747e-30)
(1.69279e-07 4.137435e-07 6.177584e-31)
(-2.312556e-07 1.459777e-07 0)
(-7.390838e-07 -2.68528e-07 5.41348e-29)
(-1.324022e-06 -8.200166e-07 -2.549832e-29)
(6.751172e-07 3.116609e-07 -6.654557e-29)
(6.039834e-07 4.875753e-07 -5.800602e-29)
(4.335567e-07 3.830079e-07 2.048442e-30)
(1.533988e-07 2.082799e-07 -5.728518e-31)
(-2.39949e-07 -1.097434e-07 0)
(-7.391142e-07 -5.682303e-07 6.039286e-29)
(-1.326734e-06 -1.152683e-06 -1.581064e-29)
(6.545524e-07 2.860348e-07 -6.336083e-29)
(5.906005e-07 4.087881e-07 -1.12494e-28)
(4.308084e-07 2.497228e-07 -4.121078e-29)
(1.623716e-07 2.027593e-08 0)
(-2.24123e-07 -3.501731e-07 5.0562e-29)
(-7.084973e-07 -8.419543e-07 1.185889e-28)
(-1.317636e-06 -1.4688e-06 3.762885e-29)
(6.464652e-07 2.658261e-07 -6.140817e-29)
(5.911646e-07 3.448268e-07 -1.109013e-28)
(4.44778e-07 1.38149e-07 -8.284292e-29)
(1.893695e-07 -1.403486e-07 -1.599887e-29)
(-1.854103e-07 -5.531835e-07 8.254383e-30)
(-6.768798e-07 -1.106329e-06 5.686178e-29)
(-1.295459e-06 -1.773253e-06 -1.259138e-28)
(6.347716e-07 2.520501e-07 0)
(5.921092e-07 2.997111e-07 -5.458408e-29)
(4.647591e-07 5.462785e-08 -4.176647e-29)
(2.28237e-07 -2.695105e-07 -4.664321e-29)
(-1.31371e-07 -7.323838e-07 0)
(-6.222694e-07 -1.341387e-06 4.99492e-29)
(-1.251314e-06 -2.060356e-06 4.980827e-31)
(5.975689e-07 2.474348e-07 5.525781e-29)
(5.748873e-07 2.801437e-07 0)
(4.75844e-07 8.199589e-09 0)
(2.682037e-07 -3.557338e-07 6.327664e-30)
(-6.93873e-08 -8.68668e-07 1.324592e-29)
(-5.553014e-07 -1.535391e-06 0)
(-1.18194e-06 -2.316788e-06 8.389143e-29)
(5.060473e-07 2.554924e-07 8.990832e-29)
(5.139023e-07 2.957509e-07 0)
(4.579352e-07 1.299011e-08 0)
(2.966637e-07 -3.826458e-07 2.175383e-29)
(4.374962e-10 -9.480677e-07 5.027225e-30)
(-4.657781e-07 -1.681548e-06 2.473761e-29)
(-1.054169e-06 -2.513533e-06 0)
(3.212879e-07 2.808089e-07 2.502372e-29)
(3.743904e-07 3.596142e-07 9.509347e-32)
(3.819972e-07 8.920852e-08 3.177866e-29)
(2.909924e-07 -3.22854e-07 7.880469e-30)
(6.117983e-08 -9.300551e-07 1.467726e-29)
(-3.425899e-07 -1.713464e-06 8.486085e-30)
(-9.259509e-07 -2.65486e-06 0)
(-7.731408e-09 3.290367e-07 0)
(1.101819e-07 4.876765e-07 9.257411e-31)
(2.08479e-07 2.609778e-07 1.016753e-29)
(2.20004e-07 -1.475703e-07 0)
(9.079001e-08 -7.914881e-07 1.039977e-29)
(-2.235376e-07 -1.645739e-06 9.506267e-29)
(-7.535514e-07 -2.696722e-06 6.97246e-29)
(-5.459937e-07 4.0657e-07 6.598995e-29)
(-3.386063e-07 6.985426e-07 4.945264e-29)
(-1.151171e-07 5.574577e-07 -2.634355e-29)
(4.049264e-08 1.812133e-07 0)
(5.821117e-08 -4.845589e-07 -2.844626e-29)
(-1.226822e-07 -1.411451e-06 -5.385152e-33)
(-5.563927e-07 -2.584895e-06 7.248665e-29)
(-1.373658e-06 5.202797e-07 1.521147e-28)
(-1.046886e-06 1.012486e-06 1.253514e-28)
(-6.565311e-07 1.012079e-06 -8.666521e-29)
(-3.062961e-07 7.083974e-07 0)
(-8.210539e-08 4.506087e-08 0)
(-6.101925e-08 -9.529818e-07 -2.298122e-29)
(-3.392185e-07 -2.261107e-06 -5.534281e-28)
(-2.587503e-06 6.762797e-07 2.793755e-28)
(-2.105251e-06 1.449736e-06 2.409968e-28)
(-1.502702e-06 1.659205e-06 0)
(-9.001777e-07 1.483371e-06 -1.151063e-28)
(-4.030377e-07 8.667485e-07 -1.80474e-29)
(-1.04382e-07 -1.613699e-07 1.201828e-29)
(-1.013034e-07 -1.533368e-06 2.060126e-28)
(-4.295229e-06 8.8778e-07 4.546329e-28)
(-3.623608e-06 2.019905e-06 0)
(-2.754388e-06 2.525494e-06 3.270753e-28)
(-1.84363e-06 2.550715e-06 -2.184218e-28)
(-9.996477e-07 2.034453e-06 1.193668e-28)
(-3.364695e-07 9.986728e-07 4.075116e-29)
(2.853882e-08 -5.058803e-07 -6.131745e-29)
(-6.626466e-06 1.13479e-06 0)
(-5.708338e-06 2.748699e-06 0)
(-4.532787e-06 3.629728e-06 1.033528e-27)
(-3.257671e-06 3.942204e-06 0)
(-1.998919e-06 3.612002e-06 4.856769e-28)
(-8.655931e-07 2.638863e-06 9.413698e-29)
(6.53899e-09 1.045387e-06 4.429704e-29)
(-9.662468e-06 1.438507e-06 1.017909e-27)
(-8.470191e-06 3.634689e-06 -9.049812e-28)
(-6.987962e-06 4.946327e-06 -7.784708e-28)
(-5.298884e-06 5.657713e-06 0)
(-3.564946e-06 5.636471e-06 4.355463e-28)
(-1.87523e-06 4.857204e-06 0)
(-3.415685e-07 3.306071e-06 -6.827757e-29)
(-1.349286e-05 1.766179e-06 1.407712e-27)
(-1.204462e-05 4.573789e-06 -1.307879e-27)
(-1.022379e-05 6.52551e-06 -3.447748e-27)
(-8.168606e-06 7.649569e-06 -1.955034e-27)
(-5.909064e-06 8.095709e-06 6.615442e-28)
(-3.604696e-06 7.692345e-06 -4.015313e-29)
(-1.28355e-06 6.361285e-06 7.902141e-30)
(-1.813462e-05 2.104254e-06 -5.679091e-30)
(-1.640679e-05 5.545117e-06 -1.427368e-29)
(-1.436058e-05 8.061188e-06 -1.705097e-27)
(-1.197413e-05 9.865733e-06 -2.68264e-27)
(-9.290602e-06 1.091387e-05 1.316638e-27)
(-6.379036e-06 1.113291e-05 -1.608691e-28)
(-3.178054e-06 1.034038e-05 -2.155e-28)
(-2.35221e-05 2.404747e-06 6.615215e-30)
(-2.153909e-05 6.431283e-06 1.710682e-29)
(-1.935042e-05 9.542045e-06 -2.100594e-27)
(-1.683229e-05 1.209981e-05 -9.93291e-28)
(-1.402167e-05 1.377162e-05 1.203485e-27)
(-1.063967e-05 1.499725e-05 -1.075678e-27)
(-6.586237e-06 1.525749e-05 0)
(-2.945378e-05 2.601271e-06 0)
(-2.727907e-05 7.023069e-06 0)
(-2.512808e-05 1.057226e-05 -2.870784e-27)
(-2.287398e-05 1.371559e-05 -2.98961e-27)
(-2.019988e-05 1.6624e-05 -3.985038e-27)
(-1.694667e-05 1.880801e-05 -3.417532e-27)
(-1.225518e-05 2.083836e-05 0)
(-3.555367e-05 2.620907e-06 1.490589e-29)
(-3.328219e-05 7.111662e-06 -3.863725e-29)
(-3.138235e-05 1.084197e-05 -1.187428e-28)
(-2.969326e-05 1.43828e-05 0)
(-2.787436e-05 1.803636e-05 -6.825448e-27)
(-2.532177e-05 2.20471e-05 4.430694e-28)
(-2.105903e-05 2.637031e-05 1.038456e-27)
(-4.12572e-05 2.38371e-06 4.30006e-27)
(-3.901075e-05 6.4577e-06 -3.701028e-29)
(-3.760904e-05 9.940092e-06 4.365516e-27)
(-3.687683e-05 1.354229e-05 0)
(-3.647688e-05 1.780144e-05 -4.867332e-27)
(-3.552001e-05 2.345831e-05 -1.455956e-27)
(-3.38423e-05 2.999757e-05 5.795254e-27)
(-4.581415e-05 1.824036e-06 4.798202e-27)
(-4.372504e-05 4.851222e-06 4.849368e-27)
(-4.302658e-05 7.484052e-06 5.063268e-27)
(-4.360415e-05 1.049548e-05 2.338909e-28)
(-4.522168e-05 1.456952e-05 6.458853e-28)
(-4.726766e-05 2.05846e-05 -4.506316e-27)
(-4.905197e-05 3.007524e-05 2.656659e-27)
(-4.836883e-05 9.146823e-07 0)
(-4.653648e-05 2.184499e-06 -5.217156e-27)
(-4.665906e-05 3.271855e-06 -5.581214e-27)
(-4.872688e-05 4.932389e-06 -5.993125e-29)
(-5.267084e-05 7.93894e-06 6.801909e-27)
(-5.817212e-05 1.339728e-05 3.135114e-28)
(-6.433734e-05 2.351531e-05 0)
(-4.805259e-05 -3.184831e-07 -5.107395e-27)
(-4.641778e-05 -1.485963e-06 -1.078554e-26)
(-4.743156e-05 -2.66728e-06 -5.96826e-27)
(-5.100726e-05 -3.21164e-06 -1.297069e-26)
(-5.720062e-05 -2.368424e-06 7.299801e-27)
(-6.586363e-05 6.993154e-07 -8.306122e-27)
(-8.021197e-05 6.841986e-06 -1.812985e-30)
(-4.399126e-05 -1.801807e-06 -4.73533e-27)
(-4.2596e-05 -5.902085e-06 -2.936234e-29)
(-4.413665e-05 -1.024147e-05 0)
(-4.918898e-05 -1.349407e-05 2.860622e-29)
(-5.741263e-05 -1.534058e-05 -1.521831e-26)
(-7.194293e-05 -1.860997e-05 -9.246424e-27)
(-0.0001100296 -3.444303e-05 1.898268e-31)
(-3.56572e-05 -3.443235e-06 3.907057e-27)
(-3.439556e-05 -1.080117e-05 1.134782e-28)
(-3.616409e-05 -1.847292e-05 1.965407e-28)
(-4.166028e-05 -2.582734e-05 9.483509e-27)
(-5.573227e-05 -3.416597e-05 -3.069709e-27)
(-9.394942e-05 -6.356175e-05 2.086288e-26)
(-0.0001813853 -0.0001320692 -1.274036e-26)
(-2.27505e-05 -5.082188e-06 2.617967e-27)
(-2.150304e-05 -1.563816e-05 0)
(-2.286428e-05 -2.650267e-05 5.690767e-28)
(-2.913593e-05 -4.161342e-05 9.071824e-28)
(-6.216972e-05 -8.046113e-05 1.790749e-26)
(-0.000153556 -0.0001631038 3.727741e-26)
(-0.0002822018 -0.0002751045 -1.342049e-26)
(-5.463569e-06 -6.56163e-06 0)
(-4.072535e-06 -1.946444e-05 4.067536e-28)
(-5.079233e-06 -3.447441e-05 7.283632e-28)
(-2.16996e-05 -7.495852e-05 4.132861e-27)
(-9.36624e-05 -0.0001749221 3.832519e-27)
(-0.0002215789 -0.0003169433 -7.939614e-26)
(-0.0003453842 -0.0004243848 -7.610753e-26)
(1.567352e-05 -7.412828e-06 0)
(1.795588e-05 -2.285785e-05 -1.023606e-27)
(1.274458e-05 -5.302993e-05 -4.549612e-27)
(-3.44171e-05 -0.0001444016 -7.84631e-27)
(-0.0001391681 -0.0003081099 1.719685e-26)
(-0.0002557654 -0.0004672592 -6.843733e-26)
(-0.0003370021 -0.0006345019 -3.724719e-26)
(3.864198e-05 -6.79037e-06 -3.615957e-27)
(4.240258e-05 -2.84374e-05 -3.463151e-27)
(2.193524e-05 -9.813092e-05 8.143413e-31)
(-5.715248e-05 -0.0002543136 1.397554e-30)
(-0.0001618224 -0.0004289083 -1.971476e-29)
(-0.0002439211 -0.0006269188 2.351773e-28)
(-0.0002812927 -0.0008347356 -3.803859e-30)
(6.078005e-05 -5.372248e-06 -5.952056e-27)
(6.03298e-05 -4.568789e-05 7.947317e-32)
(1.822414e-05 -0.0001700225 -4.999047e-28)
(-6.691747e-05 -0.0003570047 -8.346095e-27)
(-0.0001460767 -0.0005578077 3.980379e-26)
(-0.0001963365 -0.000783946 4.884909e-26)
(-0.0002516758 -0.00103027 7.054681e-26)
(7.853418e-05 -8.901999e-06 -5.57506e-33)
(6.437291e-05 -8.037837e-05 -3.023954e-31)
(7.618393e-06 -0.0002441783 5.991414e-27)
(-5.856346e-05 -0.0004405737 3.412097e-27)
(-0.0001064102 -0.0006723026 1.78753e-27)
(-0.0001559626 -0.0009311209 -1.907749e-27)
(-0.0002546411 -0.001249019 1.019077e-25)
(9.03128e-05 -2.225415e-05 4.482217e-34)
(5.892783e-05 -0.0001289627 -1.339003e-31)
(-1.725674e-06 -0.0003086042 7.533867e-27)
(-4.619922e-05 -0.0005221855 9.07953e-27)
(-8.20682e-05 -0.0007807885 -7.996908e-27)
(-0.0001525863 -0.001087374 3.701163e-27)
(-0.0002765816 -0.0014658 -4.118172e-27)
(9.417303e-05 -4.499595e-05 4.689971e-27)
(5.284745e-05 -0.0001848306 2.502776e-27)
(2.12403e-07 -0.0003660342 -1.486863e-28)
(-3.476601e-05 -0.000600265 -2.467471e-27)
(-7.890572e-05 -0.00088722 -1.042404e-26)
(-0.0001697183 -0.001248998 1.596478e-27)
(-0.0003020404 -0.001673474 2.67712e-26)
(8.348783e-05 -6.778896e-05 8.258914e-27)
(4.410572e-05 -0.0002311456 -2.930942e-27)
(6.32346e-06 -0.0004250057 -3.263208e-26)
(-3.02709e-05 -0.0006773804 -5.132071e-26)
(-8.690525e-05 -0.0009982114 2.601111e-26)
(-0.0001874752 -0.001407938 1.779096e-25)
(-0.0003265978 -0.00186406 9.859457e-26)
(5.483601e-05 -8.578585e-05 2.665601e-27)
(2.328778e-05 -0.0002635489 2.751106e-27)
(-2.784651e-06 -0.0004721809 4.336398e-27)
(-3.702615e-05 -0.0007434643 1.527862e-27)
(-9.621604e-05 -0.001092174 2.771626e-29)
(-0.000193631 -0.001542582 -2.54082e-27)
(-0.0003260516 -0.002042961 -9.737733e-26)
(1.661202e-05 -9.994199e-05 -7.130251e-28)
(-7.639748e-06 -0.0002918268 -1.839472e-30)
(-2.911065e-05 -0.0005117053 -1.080389e-29)
(-5.636206e-05 -0.0007972169 -1.810472e-29)
(-0.000107531 -0.001172599 -1.045048e-29)
(-0.000190813 -0.001652182 -4.019377e-27)
(-0.0003030582 -0.002178187 -5.862871e-29)
(-2.240806e-05 -0.0001103797 1.920968e-27)
(-4.029767e-05 -0.0003136248 4.548524e-27)
(-5.762599e-05 -0.0005412234 3.275109e-27)
(-7.989407e-05 -0.0008373181 1.901989e-27)
(-0.0001183403 -0.001233031 -1.024211e-26)
(-0.0001776448 -0.001731239 3.908147e-29)
(-0.0002550121 -0.002273155 1.832933e-26)
(-6.547238e-05 -0.0001178831 -6.909308e-28)
(-7.629399e-05 -0.0003283118 -1.558323e-27)
(-9.059713e-05 -0.0005590558 -1.445917e-29)
(-0.0001083173 -0.0008600618 -2.313861e-29)
(-0.000129818 -0.001265022 1.071897e-26)
(-0.0001559254 -0.001769164 3.364429e-26)
(-0.0001850621 -0.002312764 -3.138074e-27)
(-0.0001090141 -0.0001196774 -7.001162e-28)
(-0.0001102391 -0.0003321432 -1.582658e-27)
(-0.0001209924 -0.0005634057 -2.057427e-29)
(-0.0001341637 -0.0008637283 2.818621e-27)
(-0.000137988 -0.001265097 1.060319e-26)
(-0.0001294473 -0.00176285 1.647446e-26)
(-0.0001086481 -0.002296665 -4.198665e-26)
(-0.000142624 -0.0001145776 -1.767618e-32)
(-0.000134645 -0.0003237407 2.979335e-30)
(-0.0001411992 -0.0005535701 -7.144927e-30)
(-0.0001508863 -0.0008484641 1.120003e-26)
(-0.0001414822 -0.001235456 1.689203e-26)
(-0.0001061649 -0.001716933 3.104918e-26)
(-4.720396e-05 -0.002233489 2.146385e-26)
(-0.0001678995 -0.0001063164 3.144293e-28)
(-0.0001518501 -0.0003083237 7.947026e-28)
(-0.0001523417 -0.0005329805 -3.640925e-27)
(-0.0001586496 -0.0008184519 -3.568306e-27)
(-0.0001412695 -0.001183003 8.279441e-27)
(-8.932555e-05 -0.001640273 -5.836892e-27)
(-7.913781e-06 -0.002131371 4.467102e-32)
(-0.0001866288 -9.449763e-05 9.292194e-27)
(-0.0001609825 -0.0002872214 -1.099663e-26)
(-0.0001523319 -0.0005034516 -1.190015e-26)
(-0.0001497077 -0.0007762264 -9.211769e-27)
(-0.0001261139 -0.001113081 2.247362e-30)
(-6.378168e-05 -0.001538062 -3.214648e-28)
(2.980659e-05 -0.001999233 7.64613e-27)
(-0.0001895326 -7.765869e-05 1.890256e-26)
(-0.0001523776 -0.0002598637 -1.370259e-28)
(-0.000122048 -0.0004648991 -3.876855e-26)
(-0.0001092998 -0.0007180832 -4.770475e-26)
(-8.928758e-05 -0.001027137 4.771162e-26)
(-2.938905e-05 -0.001409785 9.31185e-26)
(6.313785e-05 -0.001832415 6.010005e-26)
(-0.0001721175 -5.433781e-05 -8.394373e-27)
(-0.0001304308 -0.0002111538 1.581828e-26)
(-7.787868e-05 -0.0004045028 1.627057e-26)
(-5.704455e-05 -0.0006443785 1.72968e-26)
(-4.739e-05 -0.0009273428 1.305421e-26)
(-6.960354e-07 -0.001264307 -1.191183e-26)
(8.365217e-05 -0.001654042 -8.107715e-29)
(-0.0001426921 -3.060295e-05 -1.429738e-26)
(-0.0001108197 -0.0001523702 -8.788182e-28)
(-4.83235e-05 -0.0003478721 -7.740397e-27)
(-6.959748e-06 -0.0005679365 1.671122e-27)
(7.766324e-06 -0.0008257751 9.618826e-27)
(4.077188e-05 -0.00111212 -9.055622e-27)
(0.0001242521 -0.001452992 3.255398e-27)
(-0.0001086199 -1.709717e-05 1.072108e-26)
(-9.361681e-05 -0.0001016854 -6.190955e-31)
(-3.45547e-05 -0.0002777377 -4.838532e-27)
(3.882171e-05 -0.0004838151 -1.03794e-26)
(8.601494e-05 -0.00071102 3.825267e-27)
(0.0001163107 -0.0009551577 -9.459122e-29)
(0.0001863128 -0.001231606 -1.021116e-25)
(-7.166452e-05 -1.292912e-05 -7.056089e-29)
(-6.913437e-05 -6.569998e-05 -3.697918e-28)
(-2.48665e-05 -0.0001949918 -4.623794e-29)
(6.799741e-05 -0.0003896852 -8.627672e-27)
(0.0001591229 -0.0005843606 -7.666787e-27)
(0.0002151857 -0.0007945414 8.792377e-26)
(0.0002582681 -0.001007166 1.834704e-26)
(-3.412497e-05 -1.295079e-05 -3.193338e-27)
(-3.493523e-05 -4.582395e-05 -2.556366e-28)
(-1.12861e-05 -0.0001200017 3.210292e-27)
(6.986917e-05 -0.0002741453 1.634717e-26)
(0.0001862436 -0.0004507822 2.126754e-26)
(0.0002841035 -0.0006247052 4.036546e-30)
(0.0003379456 -0.000801141 -8.209584e-26)
(9.295601e-07 -1.209781e-05 0)
(1.475192e-06 -3.693868e-05 1.339236e-30)
(1.075447e-05 -7.370013e-05 4.09892e-27)
(5.906176e-05 -0.0001622675 1.553015e-26)
(0.0001647011 -0.0003195547 -2.01043e-26)
(0.0002956477 -0.000466737 1.138142e-26)
(0.0003985559 -0.0005959089 -1.473709e-25)
(3.118726e-05 -1.014072e-05 0)
(3.207656e-05 -2.998689e-05 -6.839035e-28)
(3.727491e-05 -5.164698e-05 -6.494115e-27)
(5.793311e-05 -9.440854e-05 3.350824e-31)
(0.0001286893 -0.0001839529 -6.940753e-27)
(0.00025677 -0.0003159949 1.078182e-25)
(0.0003901378 -0.0004111802 1.435202e-28)
(5.502135e-05 -7.625766e-06 5.885966e-27)
(5.576271e-05 -2.323168e-05 0)
(6.080966e-05 -3.899962e-05 0)
(7.219493e-05 -5.779881e-05 -2.737105e-27)
(0.0001083819 -9.498214e-05 2.283452e-26)
(0.0001932168 -0.0001662585 4.652214e-26)
(0.0003216965 -0.0002678214 -2.732473e-26)
(7.243177e-05 -5.166466e-06 7.617066e-27)
(7.291348e-05 -1.594461e-05 -1.848855e-28)
(7.781401e-05 -2.68715e-05 -3.126501e-28)
(8.779337e-05 -3.715392e-05 -3.843101e-27)
(0.0001069369 -4.754627e-05 2.108785e-26)
(0.0001479075 -7.279448e-05 1.023798e-31)
(0.0002322514 -0.0001222722 -5.889107e-26)
(8.362051e-05 -2.858271e-06 0)
(8.375337e-05 -9.025319e-06 -9.175097e-27)
(8.800542e-05 -1.524983e-05 0)
(9.693054e-05 -2.003304e-05 -5.049109e-28)
(0.0001102201 -2.293477e-05 -5.786813e-28)
(0.0001309014 -2.47649e-05 3.146377e-32)
(0.0001725853 -3.244237e-05 -3.899366e-26)
(8.912611e-05 -8.278001e-07 0)
(8.884087e-05 -2.939682e-06 9.57317e-27)
(9.219748e-05 -4.822474e-06 -1.027614e-26)
(9.90382e-05 -5.69557e-06 0)
(0.0001094545 -4.501718e-06 -3.792103e-28)
(0.0001236758 1.726406e-07 -1.436858e-26)
(0.0001425035 9.262726e-06 3.035249e-28)
(8.977503e-05 8.539578e-07 0)
(8.910465e-05 2.109101e-06 2.84973e-26)
(9.118908e-05 3.429178e-06 5.378903e-30)
(9.594255e-05 5.74206e-06 2.152631e-26)
(0.0001034883 9.991477e-06 3.255181e-28)
(0.0001129846 1.755753e-05 -1.263441e-26)
(0.0001234625 3.033539e-05 3.042764e-27)
(8.664642e-05 2.131362e-06 -8.908206e-27)
(8.553745e-05 5.874698e-06 9.10028e-27)
(8.646509e-05 9.474178e-06 2.884026e-32)
(8.931427e-05 1.388371e-05 1.941655e-26)
(9.367385e-05 1.991131e-05 0)
(9.89759e-05 2.845699e-05 0)
(0.0001048947 4.1283e-05 2.050922e-26)
(8.080936e-05 2.9829e-06 -8.266445e-27)
(7.936907e-05 8.365661e-06 8.371405e-27)
(7.927943e-05 1.342808e-05 -8.472088e-27)
(8.040384e-05 1.893031e-05 -8.699914e-27)
(8.209949e-05 2.570181e-05 0)
(8.372902e-05 3.447736e-05 0)
(8.56971e-05 4.496219e-05 1.050198e-26)
(7.328885e-05 3.447324e-06 7.496879e-27)
(7.165285e-05 9.712848e-06 7.662234e-27)
(7.082941e-05 1.541981e-05 1.627877e-28)
(7.047865e-05 2.13812e-05 -7.292634e-27)
(7.019506e-05 2.800997e-05 -1.571437e-27)
(6.988524e-05 3.537085e-05 1.261186e-26)
(6.800038e-05 4.426935e-05 -6.15249e-27)
(6.499175e-05 3.587417e-06 6.652657e-27)
(6.332612e-05 1.009401e-05 5.568141e-29)
(6.195146e-05 1.597231e-05 -1.71886e-28)
(6.066819e-05 2.176863e-05 -2.330563e-28)
(5.919064e-05 2.77939e-05 0)
(5.732248e-05 3.394799e-05 6.503813e-27)
(5.410705e-05 4.058795e-05 -5.532182e-27)
(5.659872e-05 3.515981e-06 0)
(5.500389e-05 9.830316e-06 1.061112e-28)
(5.334359e-05 1.548979e-05 1.674697e-28)
(5.144428e-05 2.094219e-05 -1.210913e-26)
(4.95156e-05 2.586051e-05 -1.949517e-27)
(4.676019e-05 3.101257e-05 -8.889178e-27)
(4.33789e-05 3.579733e-05 -3.602803e-27)
(4.861166e-05 3.274645e-06 1.794753e-29)
(4.713483e-05 9.146346e-06 4.982423e-29)
(4.54196e-05 1.428883e-05 0)
(4.343184e-05 1.903169e-05 1.20291e-29)
(4.104177e-05 2.34126e-05 -4.166799e-27)
(3.833046e-05 2.738219e-05 -3.826941e-27)
(3.51438e-05 3.085635e-05 6.013132e-28)
(4.1303e-05 2.967134e-06 -4.187905e-27)
(3.999191e-05 8.259476e-06 4.183242e-27)
(3.830473e-05 1.288663e-05 -7.120745e-27)
(3.645077e-05 1.686157e-05 8.112558e-27)
(3.410937e-05 2.05443e-05 -3.198618e-27)
(3.161919e-05 2.365785e-05 0)
(2.881825e-05 2.623396e-05 -4.982116e-28)
(3.480443e-05 2.635562e-06 -3.545187e-27)
(3.364317e-05 7.314219e-06 3.372635e-27)
(3.221989e-05 1.120054e-05 -3.213959e-27)
(3.04284e-05 1.473284e-05 0)
(2.842199e-05 1.772434e-05 2.805584e-27)
(2.625785e-05 2.01879e-05 0)
(2.3917e-05 2.214757e-05 -2.215134e-27)
(2.916542e-05 2.296618e-06 0)
(2.823868e-05 6.308146e-06 0)
(2.696337e-05 9.707808e-06 5.405692e-27)
(2.544476e-05 1.266529e-05 0)
(2.375906e-05 1.512597e-05 4.628657e-27)
(2.19514e-05 1.711233e-05 2.079028e-27)
(2.004848e-05 1.866276e-05 -1.816019e-27)
(2.433305e-05 2.011302e-06 2.461991e-27)
(2.361967e-05 5.417351e-06 0)
(2.255618e-05 8.306334e-06 2.20529e-27)
(2.130688e-05 1.079502e-05 -2.152712e-27)
(1.992422e-05 1.284053e-05 1.918517e-27)
(1.846277e-05 1.446194e-05 3.446206e-27)
(1.695251e-05 1.569715e-05 1.509036e-27)
(2.027996e-05 1.733569e-06 2.045194e-27)
(1.969413e-05 4.662804e-06 1.963882e-27)
(1.885797e-05 7.087054e-06 0)
(1.785657e-05 9.182715e-06 -1.836928e-27)
(1.675482e-05 1.089437e-05 -1.054918e-28)
(1.5607e-05 1.223541e-05 2.99287e-27)
(1.444478e-05 1.323689e-05 3.40486e-28)
(1.686665e-05 1.507928e-06 1.70439e-27)
(1.640773e-05 4.007076e-06 1.642117e-27)
(1.575527e-05 6.053434e-06 -1.55926e-27)
(1.496856e-05 7.830938e-06 0)
(1.410916e-05 9.280968e-06 0)
(1.321991e-05 1.042456e-05 1.208901e-27)
(1.231714e-05 1.130835e-05 -1.775388e-27)
(1.400095e-05 1.319448e-06 1.413891e-27)
(1.364673e-05 3.463732e-06 1.364447e-27)
(1.314348e-05 5.199565e-06 -1.296018e-27)
(1.253535e-05 6.716951e-06 0)
(1.18742e-05 7.95453e-06 -7.583474e-29)
(1.119127e-05 8.925804e-06 -1.386781e-31)
(1.048984e-05 9.646181e-06 7.929553e-29)
(1.158966e-05 1.166456e-06 0)
(1.13187e-05 3.021053e-06 1.129695e-27)
(1.093361e-05 4.504608e-06 -1.076383e-27)
(1.046903e-05 5.809802e-06 0)
(9.965696e-06 6.873375e-06 1.000884e-27)
(9.446164e-06 7.704659e-06 1.368436e-28)
(8.904606e-06 8.314264e-06 6.707557e-29)
(9.551197e-06 1.043903e-06 -9.643774e-28)
(9.343649e-06 2.665854e-06 7.024724e-30)
(9.050659e-06 3.945421e-06 -8.784832e-28)
(8.699209e-06 5.07723e-06 2.55453e-29)
(8.320188e-06 5.996414e-06 2.790945e-29)
(7.929149e-06 6.708604e-06 7.124813e-28)
(7.513939e-06 7.220124e-06 0)
(7.814983e-06 9.469214e-07 -1.577774e-27)
(7.654497e-06 2.383876e-06 0)
(7.432033e-06 3.49967e-06 0)
(7.167893e-06 4.491414e-06 -7.108897e-28)
(6.882635e-06 5.294944e-06 -1.30737e-27)
(6.578228e-06 5.913555e-06 5.881444e-28)
(6.267803e-06 6.316781e-06 0)
(6.322156e-06 8.707811e-07 -6.380596e-28)
(6.196124e-06 2.16156e-06 5.813916e-30)
(6.027127e-06 3.145972e-06 8.404067e-30)
(5.830196e-06 4.022664e-06 2.11778e-29)
(5.619424e-06 4.723993e-06 -4.977025e-28)
(5.396506e-06 5.241243e-06 0)
(5.157484e-06 5.586279e-06 4.347695e-28)
(5.024584e-06 8.114851e-07 1.23439e-30)
(4.923799e-06 1.98738e-06 4.982296e-28)
(4.795679e-06 2.866572e-06 4.766945e-28)
(4.651005e-06 3.64911e-06 8.868645e-28)
(4.499136e-06 4.26596e-06 0)
(4.338156e-06 4.707529e-06 3.750703e-28)
(4.162668e-06 4.983513e-06 -4.142696e-31)
(3.883535e-06 7.657599e-07 3.908217e-28)
(3.801629e-06 1.852332e-06 7.581219e-28)
(3.705944e-06 2.64793e-06 7.295266e-28)
(3.603855e-06 3.353647e-06 3.593081e-28)
(3.501008e-06 3.900009e-06 1.939628e-29)
(3.392175e-06 4.27552e-06 2.880987e-28)
(3.272662e-06 4.487289e-06 -2.849664e-28)
(2.867579e-06 7.312639e-07 2.892697e-28)
(2.800365e-06 1.749882e-06 5.552115e-28)
(2.731082e-06 2.481072e-06 2.645244e-28)
(2.662994e-06 3.127662e-06 0)
(2.592598e-06 3.619629e-06 1.428463e-28)
(2.535584e-06 3.928202e-06 1.74744e-28)
(2.469504e-06 4.080691e-06 3.132722e-29)
(1.951349e-06 7.060299e-07 1.979483e-28)
(1.896372e-06 1.674354e-06 1.845206e-28)
(1.850178e-06 2.356188e-06 -2.035541e-29)
(1.814047e-06 2.953677e-06 -1.642253e-29)
(1.786564e-06 3.391382e-06 0)
(1.764746e-06 3.658071e-06 1.425642e-28)
(1.747143e-06 3.751844e-06 -1.462545e-29)
(1.114258e-06 6.887781e-07 1.132228e-28)
(1.070523e-06 1.62214e-06 1.018447e-28)
(1.04628e-06 2.268066e-06 -1.337905e-29)
(1.040906e-06 2.828193e-06 -8.071064e-30)
(1.050534e-06 3.226656e-06 0)
(1.069663e-06 3.45099e-06 6.010858e-29)
(1.098524e-06 3.494568e-06 -2.791547e-29)
(3.388311e-07 6.789686e-07 -1.126697e-30)
(3.066325e-07 1.591633e-06 5.214025e-29)
(3.052794e-07 2.214471e-06 -6.698444e-30)
(3.321977e-07 2.74834e-06 -8.069917e-30)
(3.819212e-07 3.115848e-06 0)
(4.465385e-07 3.302855e-06 0)
(5.222746e-07 3.301207e-06 0)
(-3.904355e-07 6.764889e-07 0)
(-4.095283e-07 1.582392e-06 -4.510259e-29)
(-3.847539e-07 2.19415e-06 0)
(-3.220496e-07 2.712292e-06 6.161665e-29)
(-2.280949e-07 3.05722e-06 1.743023e-29)
(-1.143911e-07 3.21308e-06 1.660198e-29)
(1.312005e-08 3.171033e-06 4.415752e-29)
(-1.088438e-06 6.819137e-07 -1.107761e-28)
(-1.091913e-06 1.596321e-06 0)
(-1.03758e-06 2.211246e-06 -1.41247e-29)
(-9.405718e-07 2.726025e-06 2.276378e-28)
(-7.888761e-07 3.052164e-06 4.732394e-29)
(-6.20377e-07 3.180988e-06 0)
(-4.351279e-07 3.104908e-06 7.377375e-29)
(-1.769756e-06 6.957944e-07 -1.79961e-28)
(-1.753317e-06 1.634199e-06 0)
(-1.661207e-06 2.263623e-06 -7.432585e-30)
(-1.508812e-06 2.779891e-06 -8.965012e-30)
(-1.306647e-06 3.100092e-06 -3.030895e-28)
(-1.076969e-06 3.206369e-06 1.328681e-28)
(-8.30975e-07 3.103751e-06 -1.128076e-28)
(-2.449273e-06 7.195223e-07 0)
(-2.406255e-06 1.699552e-06 -2.538759e-28)
(-2.2663e-06 2.356473e-06 -7.960479e-30)
(-2.05258e-06 2.884349e-06 2.259286e-28)
(-1.785596e-06 3.200237e-06 -2.015602e-28)
(-1.490416e-06 3.288624e-06 1.760891e-28)
(-1.183883e-06 3.16307e-06 -2.145703e-31)
(-3.143641e-06 7.555708e-07 0)
(-3.063462e-06 1.798679e-06 -3.163152e-28)
(-2.859773e-06 2.497394e-06 3.009021e-28)
(-2.568494e-06 3.042301e-06 2.709524e-28)
(-2.223273e-06 3.352254e-06 -2.596851e-28)
(-1.859651e-06 3.418803e-06 -2.177669e-29)
(-1.498083e-06 3.266613e-06 1.827465e-28)
(-3.87283e-06 8.076748e-07 0)
(-3.738993e-06 1.940537e-06 0)
(-3.448307e-06 2.695629e-06 3.642176e-28)
(-3.057112e-06 3.259633e-06 -3.35229e-28)
(-2.617736e-06 3.556057e-06 -3.255249e-31)
(-2.17981e-06 3.587724e-06 0)
(-1.769133e-06 3.393195e-06 0)
(-4.661799e-06 8.81597e-07 -4.749841e-28)
(-4.447953e-06 2.138447e-06 4.618657e-28)
(-4.035307e-06 2.964777e-06 2.253486e-28)
(-3.512445e-06 3.54427e-06 -3.75516e-28)
(-2.957982e-06 3.811071e-06 3.522435e-31)
(-2.437987e-06 3.785179e-06 -2.699725e-29)
(-1.982773e-06 3.522149e-06 4.631869e-33)
(-5.543472e-06 9.8634e-07 -8.269056e-32)
(-5.206779e-06 2.412435e-06 5.442905e-28)
(-4.620145e-06 3.323568e-06 2.609659e-28)
(-3.922243e-06 3.906209e-06 1.509738e-29)