/*--------------------------------*- C++ -*----------------------------------*\
| =========                 |                                                 |
| \\      /  F ield         | OpenFOAM: The Open Source CFD Toolbox           |
|  \\    /   O peration     | Version:  2206                                  |
|   \\  /    A nd           | Website:  www.openfoam.com                      |
|    \\/     M anipulation  |                                                 |
\*---------------------------------------------------------------------------*/
FoamFile
{
    version     2.0;
    format      ascii;
    arch        "LSB;label=32;scalar=64";
    class       surfaceVectorField;
    location    "1.4";
    object      Ufa;
}
// * * * * * * * * * * * * * * * * * * * * * * * * * * * * * * * * * * * * * //

dimensions      [0 1 -1 0 0 0 0];

internalField   nonuniform List<vector> 
26037
(
(5.460702e-07 -4.091967e-05 1.441377e-24)
(-9.491882e-06 -3.806577e-05 2.874211e-28)
(-3.298025e-08 -2.542979e-05 -7.139366e-26)
(-5.450745e-06 -2.649367e-05 2.190978e-27)
(-6.19159e-08 -1.701616e-05 -1.362856e-29)
(-2.128616e-06 -1.846384e-05 -1.365951e-29)
(-4.488088e-08 -1.187813e-05 -5.774922e-30)
(-9.821451e-07 -1.307555e-05 0)
(-3.889444e-08 -8.760461e-06 1.810727e-27)
(-5.203565e-07 -9.708785e-06 -5.774024e-30)
(-3.470576e-08 -6.605983e-06 -1.158237e-29)
(-3.085309e-07 -7.380855e-06 -7.116178e-30)
(-1.997967e-07 -5.611754e-06 -5.794081e-30)
(-3.041154e-08 -4.952537e-06 4.952592e-28)
(-1.565575e-05 -2.348008e-05 -4.07015e-33)
(-1.402321e-05 -1.59845e-05 -1.413834e-31)
(-7.613264e-06 -1.951712e-05 -4.109269e-33)
(-8.940882e-06 -1.700627e-05 2.593711e-31)
(-3.047139e-06 -1.451019e-05 0)
(-4.190793e-06 -1.405573e-05 5.813918e-30)
(-1.457622e-06 -1.090613e-05 2.069542e-34)
(-2.181344e-06 -1.109529e-05 1.158472e-29)
(-7.899852e-07 -8.3294e-06 3.408865e-34)
(-1.235845e-06 -8.728341e-06 1.40838e-29)
(-4.736106e-07 -6.38673e-06 4.745655e-34)
(-7.532957e-07 -6.846258e-06 1.339968e-34)
(-4.895693e-07 -5.296037e-06 -2.283565e-30)
(-3.074897e-07 -4.828462e-06 -5.796229e-30)
(-7.327493e-06 -9.461918e-06 1.236062e-31)
(-5.105493e-06 -5.190758e-06 2.357933e-26)
(-5.540307e-06 -1.150799e-05 6.073776e-30)
(-5.195401e-06 -8.956495e-06 -4.439128e-27)
(-3.318669e-06 -1.061098e-05 1.105893e-27)
(-3.598666e-06 -9.465488e-06 7.180439e-30)
(-1.959381e-06 -8.916835e-06 -5.570824e-28)
(-2.312641e-06 -8.545433e-06 1.245072e-29)
(-1.19917e-06 -7.245317e-06 5.784326e-30)
(-1.488426e-06 -7.246831e-06 -8.303527e-30)
(-7.692436e-07 -5.755639e-06 -3.298304e-35)
(-9.834999e-07 -5.948122e-06 0)
(-6.731921e-07 -4.725676e-06 1.745145e-30)
(-5.184486e-07 -4.436943e-06 5.796171e-30)
(-2.972403e-06 -4.681086e-06 4.058901e-31)
(-1.64774e-06 -2.359389e-06 -3.51789e-31)
(-3.263069e-06 -6.894667e-06 1.893231e-30)
(-2.66707e-06 -5.033844e-06 -3.921177e-27)
(-2.583216e-06 -7.37208e-06 1.096587e-28)
(-2.457501e-06 -6.19948e-06 -1.361192e-27)
(-1.840778e-06 -6.86559e-06 7.819205e-31)
(-1.919106e-06 -6.273937e-06 4.91128e-28)
(-1.272762e-06 -5.949639e-06 -1.957372e-34)
(-1.407408e-06 -5.740945e-06 -6.960976e-30)
(-8.874393e-07 -4.91819e-06 -3.601481e-34)
(-1.016792e-06 -4.934648e-06 -1.074653e-35)
(-7.425844e-07 -4.031048e-06 5.800409e-30)
(-6.337722e-07 -3.877127e-06 -5.797661e-30)
(-1.34139e-06 -2.709962e-06 -8.637853e-29)
(-6.238027e-07 -1.400922e-06 -1.476363e-31)
(-1.862994e-06 -4.329191e-06 -1.563059e-28)
(-1.37868e-06 -3.078444e-06 1.60882e-31)
(-1.789639e-06 -5.094014e-06 6.817695e-31)
(-1.559165e-06 -4.150109e-06 2.006092e-31)
(-1.483518e-06 -5.136628e-06 -9.51173e-29)
(-1.418443e-06 -4.536482e-06 1.115842e-29)
(-1.150902e-06 -4.720802e-06 -2.520518e-28)
(-1.174017e-06 -4.422796e-06 -2.585018e-28)
(-8.719307e-07 -4.047493e-06 3.7085e-29)
(-9.287819e-07 -3.973109e-06 -5.815496e-30)
(-7.258872e-07 -3.320372e-06 -6.08044e-30)
(-6.635051e-07 -3.251137e-06 5.800758e-30)
(-6.605064e-07 -1.76811e-06 3.701654e-31)
(-2.716083e-07 -9.840298e-07 0)
(-1.073376e-06 -2.890671e-06 1.047639e-28)
(-7.378243e-07 -2.056389e-06 7.729365e-31)
(-1.187311e-06 -3.593855e-06 -1.579799e-28)
(-9.675524e-07 -2.891421e-06 -5.913989e-30)
(-1.108038e-06 -3.818181e-06 9.630439e-29)
(-9.94488e-07 -3.316163e-06 -5.52861e-30)
(-9.507581e-07 -3.667845e-06 -5.103923e-30)
(-9.103266e-07 -3.365349e-06 1.040137e-28)
(-7.823631e-07 -3.242888e-06 -1.878559e-28)
(-7.863888e-07 -3.125919e-06 -5.168159e-30)
(-6.59917e-07 -2.660277e-06 -1.170827e-29)
(-6.350856e-07 -2.633542e-06 -3.854464e-29)
(-3.48594e-07 -1.271547e-06 4.02367e-31)
(-1.320403e-07 -7.729827e-07 -6.849718e-31)
(-6.302783e-07 -2.050984e-06 -5.11168e-30)
(-4.106309e-07 -1.484736e-06 -5.626382e-28)
(-7.738096e-07 -2.611828e-06 -1.00107e-27)
(-5.99827e-07 -2.104371e-06 -2.389181e-28)
(-7.960761e-07 -2.861756e-06 -4.771192e-30)
(-6.808775e-07 -2.472097e-06 -5.976473e-30)
(-7.454983e-07 -2.820665e-06 5.899668e-29)
(-6.80907e-07 -2.568257e-06 2.106668e-30)
(-6.632589e-07 -2.538772e-06 7.394473e-31)
(-6.353599e-07 -2.41882e-06 1.47827e-30)
(-5.730451e-07 -2.06862e-06 7.328651e-31)
(-5.759848e-07 -2.064492e-06 9.190743e-34)
(-1.939398e-07 -9.858292e-07 -2.721358e-31)
(-6.881993e-08 -6.526835e-07 9.28783e-28)
(-3.79986e-07 -1.536889e-06 8.389706e-31)
(-2.362807e-07 -1.142241e-06 -4.68e-31)
(-5.068884e-07 -1.963493e-06 4.302576e-31)
(-3.765581e-07 -1.6018e-06 7.242196e-31)
(-5.658844e-07 -2.17939e-06 9.339708e-31)
(-4.647474e-07 -1.890979e-06 7.502477e-31)
(-5.707905e-07 -2.166359e-06 1.667207e-30)
(-5.016716e-07 -1.975434e-06 2.008994e-28)
(-5.449094e-07 -1.946994e-06 3.953905e-29)
(-5.028281e-07 -1.856265e-06 1.479682e-30)
(-4.850381e-07 -1.555835e-06 7.379321e-31)
(-5.059475e-07 -1.553839e-06 -5.10899e-30)
(-1.110848e-07 -8.088992e-07 -8.645064e-31)
(-3.675404e-08 -5.77791e-07 -6.393679e-28)
(-2.327299e-07 -1.206674e-06 -5.835184e-31)
(-1.385572e-07 -9.235689e-07 5.59593e-28)
(-3.33523e-07 -1.526217e-06 7.81424e-29)
(-2.383407e-07 -1.267185e-06 1.279375e-28)
(-4.008257e-07 -1.687571e-06 3.385125e-30)
(-3.174989e-07 -1.48111e-06 1.965314e-30)
(-4.33738e-07 -1.665252e-06 5.730081e-29)
(-3.689051e-07 -1.532205e-06 1.485874e-28)
(-4.42985e-07 -1.465162e-06 7.400025e-31)
(-3.965402e-07 -1.411549e-06 7.397743e-31)
(-4.087959e-07 -1.128125e-06 0)
(-4.387986e-07 -1.106529e-06 -4.365239e-31)
(-6.417493e-08 -6.92316e-07 -1.632082e-31)
(-1.914228e-08 -5.278266e-07 7.314306e-31)
(-1.440776e-07 -9.837412e-07 -1.343464e-30)
(-8.153182e-08 -7.757937e-07 -8.950644e-31)
(-2.214493e-07 -1.219646e-06 7.487096e-31)
(-1.520909e-07 -1.034243e-06 -1.392768e-30)
(-2.859705e-07 -1.326054e-06 1.186725e-30)
(-2.189153e-07 -1.183828e-06 -3.843897e-29)
(-3.317459e-07 -1.278408e-06 -1.923045e-32)
(-2.741625e-07 -1.19564e-06 -8.996474e-29)
(-3.623716e-07 -1.074559e-06 0)
(-3.163649e-07 -1.057719e-06 0)
(-3.486234e-07 -7.7191e-07 0)
(-3.824761e-07 -7.250172e-07 1.039135e-30)
(-3.646406e-08 -6.111924e-07 0)
(-8.925367e-09 -4.925567e-07 0)
(-8.94781e-08 -8.260413e-07 -9.439875e-31)
(-4.714122e-08 -6.706649e-07 9.802263e-31)
(-1.488064e-07 -9.966797e-07 2.52453e-31)
(-9.761099e-08 -8.649098e-07 1.946362e-28)
(-2.075315e-07 -1.053444e-06 1.232712e-30)
(-1.535705e-07 -9.611164e-07 -8.088451e-31)
(-2.588228e-07 -9.748411e-07 1.993169e-32)
(-2.085708e-07 -9.341783e-07 3.824256e-29)
(-3.026288e-07 -7.551118e-07 0)
(-2.589954e-07 -7.719912e-07 0)
(-3.049304e-07 -4.728607e-07 5.268015e-31)
(-3.39979e-07 -4.000647e-07 4.53761e-31)
(-1.957748e-08 -5.519357e-07 9.798186e-31)
(-2.819134e-09 -4.663014e-07 0)
(-5.522277e-08 -7.093377e-07 2.881253e-32)
(-2.585648e-08 -5.921065e-07 -2.606782e-28)
(-1.017301e-07 -8.281857e-07 -2.970956e-30)
(-6.294131e-08 -7.364076e-07 -1.693447e-30)
(-1.550366e-07 -8.415898e-07 -4.76794e-29)
(-1.108749e-07 -7.88235e-07 7.496335e-29)
(-2.087842e-07 -7.312004e-07 2.560211e-31)
(-1.647907e-07 -7.253141e-07 1.302813e-30)
(-2.613006e-07 -4.897799e-07 5.266202e-31)
(-2.204224e-07 -5.36417e-07 -9.992818e-31)
(-2.764391e-07 -2.182274e-07 -4.18946e-29)
(-3.114874e-07 -1.207899e-07 4.583871e-29)
(-9.080454e-09 -5.063928e-07 2.497639e-31)
(8.978826e-10 -4.45705e-07 8.550946e-31)
(-3.353536e-08 -6.190281e-07 -2.014685e-29)
(-1.251085e-08 -5.305309e-07 2.498047e-31)
(-7.152011e-08 -6.958005e-07 -2.019939e-30)
(-4.090388e-08 -6.346182e-07 -1.480626e-30)
(-1.210533e-07 -6.71416e-07 -2.209209e-31)
(-8.368923e-08 -6.488981e-07 -2.036656e-30)
(-1.76469e-07 -5.303829e-07 4.612685e-32)
(-1.372501e-07 -5.532392e-07 -6.996594e-30)
(-2.355573e-07 -2.649066e-07 -9.801193e-31)
(-1.969577e-07 -3.373201e-07 -1.212099e-29)
(-2.613351e-07 2.65805e-09 2.824514e-31)
(-2.960989e-07 1.226249e-07 1.918409e-32)
(-2.519867e-09 -4.697733e-07 8.552595e-31)
(3.170449e-09 -4.287646e-07 -1.451032e-28)
(-1.984782e-08 -5.460106e-07 -7.394536e-31)
(-4.146374e-09 -4.800056e-07 0)
(-5.256179e-08 -5.874983e-07 -3.624192e-29)
(-2.683971e-08 -5.504555e-07 -2.217544e-30)
(-1.002911e-07 -5.299251e-07 1.414645e-30)
(-6.544204e-08 -5.321715e-07 8.635421e-30)
(-1.577892e-07 -3.599375e-07 1.138403e-30)
(-1.194871e-07 -4.072427e-07 -3.905492e-29)
(-2.22727e-07 -6.979739e-08 -2.807322e-32)
(-1.850971e-07 -1.643601e-07 -1.002658e-30)
(-2.578288e-07 1.985057e-07 -4.315203e-32)
(-2.925486e-07 3.385597e-07 -1.466659e-30)
(1.552999e-09 -4.389352e-07 8.603753e-31)
(4.518221e-09 -4.141582e-07 8.599788e-31)
(-1.111395e-08 -4.84375e-07 -1.476348e-30)
(8.141006e-10 -4.3662e-07 1.104161e-30)
(-3.932159e-08 -4.951656e-07 -5.626578e-29)
(-1.900342e-08 -4.77831e-07 -1.476724e-30)
(-8.468816e-08 -4.088777e-07 5.855429e-28)
(-5.652604e-08 -4.304156e-07 1.006041e-28)
(-1.47032e-07 -2.102484e-07 1.302463e-29)
(-1.122476e-07 -2.786573e-07 1.460663e-29)
(-2.202064e-07 1.040371e-07 -1.017879e-30)
(-1.838146e-07 -9.687178e-09 1.484624e-30)
(-2.649008e-07 3.763652e-07 4.684522e-30)
(-2.996779e-07 5.340793e-07 -1.985725e-30)
(3.785602e-09 -4.117886e-07 1.103628e-30)
(5.290018e-09 -4.009717e-07 0)
(-7.060769e-09 -4.300484e-07 1.104384e-30)
(3.468315e-09 -3.976562e-07 -7.656829e-29)
(-3.60372e-08 -4.134685e-07 4.141379e-31)
(-1.564752e-08 -4.124857e-07 -7.359668e-31)
(-8.357227e-08 -3.019191e-07 6.943089e-29)
(-5.515964e-08 -3.390538e-07 -3.248197e-31)
(-1.49677e-07 -7.569075e-08 2.990188e-30)
(-1.147078e-07 -1.61756e-07 1.505844e-30)
(-2.285571e-07 2.628937e-07 6.401954e-29)
(-1.919683e-07 1.32904e-07 1.483979e-30)
(-2.817538e-07 5.421816e-07 4.564693e-31)
(-3.171687e-07 7.151327e-07 1.930707e-30)
(4.976721e-09 -3.86791e-07 2.244132e-30)
(5.690776e-09 -3.885678e-07 1.25317e-30)
(-5.108557e-09 -3.80077e-07 1.510107e-30)
(4.630573e-09 -3.611506e-07 -3.97767e-29)
(-3.471277e-08 -3.381554e-07 -3.025724e-29)
(-1.485072e-08 -3.511943e-07 -2.206408e-30)
(-8.538601e-08 -2.015792e-07 -7.506505e-31)
(-5.669507e-08 -2.528459e-07 -1.477437e-30)
(-1.578704e-07 5.019617e-08 0)
(-1.21935e-07 -5.050105e-08 0)
(-2.452375e-07 4.125529e-07 0)
(-2.076038e-07 2.688279e-07 -3.260986e-31)
(-3.076638e-07 7.012326e-07 -2.950179e-30)
(-3.443252e-07 8.870918e-07 -1.473324e-30)
(5.346825e-09 -3.628857e-07 1.989348e-29)
(5.821851e-09 -3.764578e-07 3.373652e-30)
(-5.102647e-09 -3.322613e-07 -1.264902e-29)
(4.658449e-09 -3.255854e-07 1.608219e-30)
(-3.678038e-08 -2.659744e-07 -3.025712e-29)
(-1.635401e-08 -2.913958e-07 -3.674276e-30)
(-9.219954e-08 -1.049659e-07 -7.503765e-31)
(-6.20744e-08 -1.685531e-07 -2.214258e-30)
(-1.726678e-07 1.718973e-07 -3.298895e-31)
(-1.346403e-07 5.862711e-08 0)
(-2.701134e-07 5.57902e-07 -5.920189e-29)
(-2.305948e-07 4.024607e-07 2.007173e-29)
(-3.425379e-07 8.583358e-07 -4.423464e-30)
(-3.811856e-07 1.054868e-06 -4.202621e-29)
(5.133959e-09 -3.391229e-07 2.045874e-29)
(5.787827e-09 -3.641924e-07 2.273353e-30)
(-6.584751e-09 -2.847234e-07 -1.315152e-29)
(3.919397e-09 -2.896241e-07 5.026882e-29)
(-4.159081e-08 -1.94097e-07 -5.879667e-29)
(-1.958115e-08 -2.308812e-07 -1.005821e-30)
(-1.033422e-07 -8.592558e-09 -1.499499e-30)
(-7.019741e-08 -8.315764e-08 -1.475506e-30)
(-1.936669e-07 2.931818e-07 1.175934e-30)
(-1.49655e-07 1.685938e-07 1.195744e-29)
(-3.031545e-07 7.034813e-07 -3.151974e-31)
(-2.57294e-07 5.362286e-07 1.610714e-29)
(-3.858757e-07 1.018056e-06 1.481427e-30)
(-4.280141e-07 1.223241e-06 -3.718909e-29)
(4.571934e-09 -3.146666e-07 3.462832e-30)
(5.722787e-09 -3.513212e-07 1.005859e-28)
(-9.069512e-09 -2.357952e-07 3.643756e-30)
(2.722142e-09 -2.519679e-07 1.13456e-28)
(-4.813351e-08 -1.200679e-07 1.1983e-30)
(-2.426958e-08 -1.675645e-07 8.677584e-29)
(-1.154645e-07 9.082024e-08 1.184904e-29)
(-8.170743e-08 6.179156e-09 2.657824e-30)
(-2.137221e-07 4.134563e-07 5.036178e-28)
(-1.713359e-07 2.829839e-07 1.338144e-29)
(-3.40875e-07 8.540788e-07 1.167758e-28)
(-2.927989e-07 6.755408e-07 1.673473e-29)
(-4.395696e-07 1.185148e-06 2.633231e-31)
(-4.846703e-07 1.397196e-06 2.955184e-30)
(3.869413e-09 -2.886042e-07 -1.570511e-29)
(5.799421e-09 -3.374378e-07 7.291249e-31)
(-1.247132e-08 -1.83762e-07 1.849672e-29)
(1.506814e-09 -2.113618e-07 1.952077e-28)
(-5.780339e-08 -4.142661e-08 5.822724e-30)
(-2.974341e-08 -9.932507e-08 1.608927e-28)
(-1.369355e-07 1.962376e-07 6.279609e-29)
(-9.5792e-08 1.023263e-07 1.226169e-28)
(-2.488082e-07 5.399337e-07 3.1956e-30)
(-1.992039e-07 4.057336e-07 1.476888e-30)
(-3.933147e-07 1.012949e-06 -1.037412e-30)
(-3.380993e-07 8.261837e-07 3.622496e-29)
(-5.043459e-07 1.364787e-06 1.995255e-30)
(-5.544138e-07 1.581505e-06 -3.644934e-29)
(3.43009e-09 -2.601867e-07 2.012977e-30)
(6.260616e-09 -3.221792e-07 -1.115537e-30)
(-1.576056e-08 -1.269607e-07 1.751129e-29)
(1.063979e-09 -1.666532e-07 2.013272e-30)
(-6.770692e-08 4.436188e-08 4.388212e-30)
(-3.467713e-08 -2.415863e-08 1.968494e-30)
(-1.578603e-07 3.112395e-07 2.423303e-30)
(-1.100199e-07 2.082752e-07 1.833007e-28)
(-2.856916e-07 6.835289e-07 1.689194e-30)
(-2.277624e-07 5.425242e-07 2.136972e-31)
(-4.51744e-07 1.186521e-06 1.727812e-30)
(-3.875162e-07 9.938868e-07 1.724989e-30)
(-5.787348e-07 1.562351e-06 9.408048e-30)
(-6.356887e-07 1.781939e-06 4.132258e-30)
(3.883362e-09 -2.286492e-07 -1.115739e-30)
(7.523682e-09 -3.051527e-07 -3.850747e-28)
(-1.785057e-08 -6.390071e-08 0)
(2.543779e-09 -1.16732e-07 0)
(-7.696455e-08 1.396737e-07 1.428568e-30)
(-3.743479e-08 5.978045e-08 0)
(-1.797335e-07 4.390335e-07 6.382041e-29)
(-1.228772e-07 3.266865e-07 -2.691385e-28)
(-3.262592e-07 8.435071e-07 2.180876e-31)
(-2.566815e-07 6.955665e-07 -1.650742e-28)
(-5.175126e-07 1.378691e-06 1.268598e-30)
(-4.372396e-07 1.179672e-06 1.315625e-30)
(-6.571359e-07 1.779507e-06 1.260374e-30)
(-7.291091e-07 2.004523e-06 -5.327134e-31)
(6.166572e-09 -1.932522e-07 -2.275948e-30)
(1.020052e-08 -2.860373e-07 -5.393117e-28)
(-1.704289e-08 6.885666e-09 0)
(7.62043e-09 -6.05781e-08 7.30102e-31)
(-8.332227e-08 2.466945e-07 -2.726017e-30)
(-3.555338e-08 1.542685e-07 -6.696566e-31)
(-1.996454e-07 5.827257e-07 -7.324131e-29)
(-1.316685e-07 4.601131e-07 -1.268833e-30)
(-3.646217e-07 1.023647e-06 -2.736953e-30)
(-2.842987e-07 8.682302e-07 -2.746064e-28)
(-5.783127e-07 1.584866e-06 1.323875e-30)
(-4.906864e-07 1.388389e-06 1.813598e-28)
(-7.448913e-07 2.024665e-06 0)
(-8.298848e-07 2.255842e-06 -1.27466e-30)
(1.162737e-08 -1.533962e-07 -4.326789e-31)
(1.520552e-08 -2.645768e-07 -1.161623e-30)
(-1.090009e-08 8.672449e-08 2.169748e-29)
(1.888438e-08 2.591175e-09 2.237427e-30)
(-8.387804e-08 3.675693e-07 7.867091e-31)
(-2.508863e-08 2.60763e-07 -7.301415e-28)
(-2.161971e-07 7.452267e-07 7.525155e-29)
(-1.314429e-07 6.108405e-07 1.45666e-30)
(-4.084786e-07 1.227757e-06 2.791639e-30)
(-3.051496e-07 1.063522e-06 4.241513e-28)
(-6.530865e-07 1.817689e-06 1.332243e-30)
(-5.434174e-07 1.624715e-06 7.173647e-30)
(-8.395392e-07 2.305069e-06 3.027378e-30)
(-9.481437e-07 2.539955e-06 -4.300373e-30)
(2.242199e-08 -1.086403e-07 1.506719e-30)
(2.38276e-08 -2.406332e-07 1.290695e-30)
(4.673622e-09 1.765323e-07 9.805655e-32)
(4.003547e-08 7.317297e-08 1.141605e-27)
(-7.263951e-08 5.038939e-07 -1.411127e-30)
(-1.670435e-10 3.800664e-07 -2.917948e-30)
(-2.203264e-07 9.288938e-07 4.204e-30)
(-1.144746e-07 7.802505e-07 0)
(-4.395099e-07 1.459025e-06 1.601732e-28)
(-3.093865e-07 1.283877e-06 1.300061e-30)
(-7.223358e-07 2.09476e-06 1.509193e-28)
(-5.819998e-07 1.895951e-06 5.866028e-30)
(-9.276976e-07 2.627071e-06 6.051524e-30)
(-1.068281e-06 2.864962e-06 -5.149523e-32)
(4.138044e-08 -5.889443e-08 2.816264e-30)
(3.777127e-08 -2.141981e-07 1.266271e-27)
(3.515352e-08 2.765933e-07 1.981234e-32)
(7.609487e-08 1.510003e-07 3.175817e-30)
(-4.200133e-08 6.562586e-07 -1.508131e-30)
(4.711368e-08 5.120197e-07 -1.348732e-27)
(-2.034724e-07 1.134966e-06 -2.901958e-30)
(-7.059773e-08 9.683742e-07 0)
(-4.513341e-07 1.719504e-06 -1.752861e-28)
(-2.856735e-07 1.529835e-06 -2.902373e-30)
(-7.782571e-07 2.408988e-06 1.686689e-28)
(-5.95269e-07 2.200409e-06 1.37069e-30)
(-9.929723e-07 2.986298e-06 -2.230547e-29)
(-1.184598e-06 3.232966e-06 1.528449e-30)
(7.239212e-08 -4.467722e-09 2.960906e-30)
(5.914036e-08 -1.854778e-07 2.133116e-30)
(8.798724e-08 3.86341e-07 1.215776e-31)
(1.335678e-07 2.350772e-07 1.951767e-27)
(1.849373e-08 8.239457e-07 -1.529684e-30)
(1.272787e-07 6.550128e-07 -1.528485e-30)
(-1.527515e-07 1.362941e-06 0)
(1.407034e-08 1.173368e-06 -4.463382e-30)
(-4.291022e-07 2.009537e-06 1.368339e-30)
(-2.178444e-07 1.799713e-06 -2.89005e-30)
(-8.014444e-07 2.761083e-06 -2.356284e-29)
(-5.668747e-07 2.53702e-06 9.892264e-28)
(-1.023099e-06 3.385284e-06 -7.89306e-28)
(-1.264983e-06 3.628922e-06 -9.203818e-28)
(1.201319e-07 5.363503e-08 -4.186592e-29)
(9.137695e-08 -1.546881e-07 1.929227e-27)
(1.727537e-07 5.037606e-07 9.58666e-31)
(2.21853e-07 3.226363e-07 9.610523e-31)
(1.22793e-07 1.004228e-06 -4.459731e-30)
(2.544179e-07 8.052621e-07 3.132086e-31)
(-5.100796e-08 1.609803e-06 -2.728958e-28)
(1.580991e-07 1.390603e-06 -2.102918e-27)
(-3.553537e-07 2.326241e-06 2.783433e-30)
(-8.336371e-08 2.088376e-06 -1.325918e-30)
(-7.839591e-07 3.150028e-06 2.194321e-28)
(-4.712882e-07 2.900788e-06 1.450428e-27)
(-9.950517e-07 3.820976e-06 9.879098e-28)
(-1.318897e-06 4.065997e-06 1.923306e-28)
(1.925465e-07 1.125641e-07 1.439332e-30)
(1.369228e-07 -1.242768e-07 1.426228e-30)
(3.036048e-07 6.249891e-07 3.139893e-31)
(3.502511e-07 4.093337e-07 0)
(2.896139e-07 1.191569e-06 -1.612311e-28)
(4.451105e-07 9.5593e-07 2.912935e-27)
(1.257057e-07 1.868816e-06 -1.486398e-30)
(3.846191e-07 1.611225e-06 -3.043845e-30)
(-1.992054e-07 2.662354e-06 4.459744e-30)
(1.46811e-07 2.385431e-06 2.515764e-27)
(-6.809311e-07 3.568629e-06 4.316626e-30)
(-2.731068e-07 3.281086e-06 2.13666e-27)
(-8.649337e-07 4.291327e-06 -3.233148e-32)
(-1.303656e-06 4.570456e-06 4.80571e-30)
(2.923835e-07 1.677844e-07 0)
(2.003493e-07 -9.753351e-08 3.446813e-31)
(4.917914e-07 7.418608e-07 3.713102e-30)
(5.310631e-07 4.874954e-07 -3.310782e-30)
(5.399126e-07 1.375865e-06 3.699183e-30)
(7.21142e-07 1.094479e-06 3.726609e-27)
(4.05603e-07 2.127476e-06 3.238458e-30)
(7.217535e-07 1.820891e-06 0)
(7.292882e-08 3.003575e-06 4.737044e-30)
(5.070534e-07 2.673658e-06 3.385566e-27)
(-4.559874e-07 4.001508e-06 5.675422e-32)
(6.712803e-08 3.657527e-06 1.495185e-30)
(-5.893125e-07 4.767331e-06 -2.523169e-27)
(-1.164027e-06 5.103929e-06 -1.464823e-30)
(4.360491e-07 2.168078e-07 -5.661891e-29)
(2.872565e-07 -7.652607e-08 2.786702e-27)
(7.60757e-07 8.395881e-07 -6.014168e-30)
(7.783084e-07 5.480951e-07 -3.480048e-27)
(9.038902e-07 1.54217e-06 -2.680489e-30)
(1.107e-06 1.205713e-06 -7.733703e-27)
(8.230462e-07 2.367372e-06 1.695236e-30)
(1.204585e-06 1.995773e-06 -2.28687e-30)
(5.01144e-07 3.327028e-06 1.694835e-30)
(1.038022e-06 2.927479e-06 6.472346e-30)
(-6.588877e-08 4.42165e-06 -7.176487e-30)
(5.970187e-07 3.999726e-06 2.846619e-30)
(-1.157527e-07 5.213772e-06 -1.002265e-29)
(-8.620488e-07 5.636805e-06 -6.429649e-28)
(6.265158e-07 2.517279e-07 -3.925e-31)
(4.009957e-07 -6.49396e-08 2.100355e-30)
(1.120785e-06 9.086171e-07 -8.677671e-30)
(1.102121e-06 5.823337e-07 -1.229818e-30)
(1.409445e-06 1.659226e-06 -9.126018e-30)
(1.620313e-06 1.272057e-06 -3.882838e-27)
(1.420914e-06 2.561655e-06 5.068087e-28)
(1.868183e-06 2.111386e-06 -9.853073e-27)
(1.133623e-06 3.600205e-06 7.623422e-30)
(1.78297e-06 3.111571e-06 5.860972e-27)
(5.470805e-07 4.790973e-06 5.251212e-28)
(1.370683e-06 4.264494e-06 8.510877e-30)
(6.215931e-07 5.581492e-06 8.472823e-30)
(-3.303272e-07 6.125314e-06 -8.95567e-28)
(8.753927e-07 2.648838e-07 1.786436e-29)
(5.461864e-07 -6.691269e-08 1.486924e-33)
(1.595711e-06 9.411659e-07 1.509659e-30)
(1.520484e-06 5.796061e-07 2.270488e-33)
(2.070916e-06 1.712177e-06 4.424275e-28)
(2.279443e-06 1.277164e-06 -4.199494e-30)
(2.227875e-06 2.672719e-06 -9.083778e-28)
(2.730741e-06 2.137243e-06 -3.648249e-29)
(2.019109e-06 3.777253e-06 1.974289e-30)
(2.789895e-06 3.174396e-06 -3.247572e-29)
(1.444842e-06 5.054263e-06 1.246703e-27)
(2.445745e-06 4.392822e-06 -2.181145e-30)
(1.69275e-06 5.798837e-06 1.130058e-29)
(5.065455e-07 6.506146e-06 1.250525e-27)
(1.190231e-06 2.47318e-07 -5.676417e-30)
(7.24883e-07 -8.685554e-08 -5.574139e-31)
(2.202123e-06 9.143217e-07 -5.694842e-30)
(2.039149e-06 5.244e-07 -7.029668e-31)
(2.932665e-06 1.686511e-06 -3.376863e-28)
(3.107995e-06 1.19833e-06 -3.499771e-27)
(3.300426e-06 2.642458e-06 -3.076483e-27)
(3.835964e-06 2.033187e-06 -4.577978e-27)
(3.221439e-06 3.798512e-06 -1.10877e-27)
(4.112274e-06 3.060076e-06 -2.615039e-30)
(2.693243e-06 5.138429e-06 -7.849126e-30)
(3.883765e-06 4.302206e-06 -1.136673e-26)
(3.167146e-06 5.772561e-06 0)
(1.728181e-06 6.68892e-06 -1.29184e-30)
(1.572537e-06 1.897868e-07 0)
(9.358049e-07 -1.29199e-07 -1.10786e-30)
(2.942962e-06 8.077904e-07 -2.308703e-30)
(2.655228e-06 4.030663e-07 1.397355e-30)
(3.997943e-06 1.538384e-06 9.534334e-31)
(4.099593e-06 1.008964e-06 4.725336e-31)
(4.63708e-06 2.439522e-06 2.669782e-28)
(5.155138e-06 1.772614e-06 3.272084e-30)
(4.785147e-06 3.565056e-06 2.365598e-27)
(5.74025e-06 2.718722e-06 -5.36687e-27)
(4.362333e-06 4.949204e-06 2.042868e-29)
(5.732238e-06 3.911932e-06 1.483838e-29)
(5.096163e-06 5.39094e-06 -1.12451e-29)
(3.414245e-06 6.557197e-06 1.677226e-30)
(2.017005e-06 8.372319e-08 3.925619e-29)
(1.172891e-06 -1.977802e-07 2.308718e-30)
(3.810079e-06 6.039447e-07 2.348368e-28)
(3.352531e-06 2.037581e-07 2.788992e-30)
(5.252831e-06 1.242235e-06 2.782926e-30)
(5.231033e-06 6.886806e-07 5.583529e-30)
(6.237686e-06 2.044913e-06 -5.003658e-30)
(6.678931e-06 1.327723e-06 0)
(6.666099e-06 3.047561e-06 -1.079969e-29)
(7.602761e-06 2.131068e-06 -4.624456e-27)
(6.447078e-06 4.385859e-06 -2.678732e-28)
(7.893802e-06 3.177708e-06 -4.857158e-29)
(7.495306e-06 4.524595e-06 -6.781665e-29)
(5.617419e-06 5.969187e-06 -1.766133e-27)
(2.506702e-06 -7.798432e-08 -5.235045e-29)
(1.423156e-06 -2.957218e-07 -4.603164e-27)
(4.771523e-06 2.883549e-07 4.19467e-30)
(4.094272e-06 -8.383369e-08 5.881711e-30)
(6.6548e-06 7.738562e-07 2.805971e-30)
(6.443321e-06 2.204444e-07 -3.993308e-27)
(8.039258e-06 1.411843e-06 2.835426e-30)
(8.324934e-06 6.687856e-07 -5.510571e-30)
(8.828557e-06 2.228531e-06 -1.493107e-27)
(9.642816e-06 1.256088e-06 -8.155418e-30)
(8.966978e-06 3.316015e-06 9.405354e-27)
(1.034591e-05 2.013276e-06 -9.907667e-28)
(1.032113e-05 3.062967e-06 -8.019715e-29)
(8.375918e-06 4.762818e-06 -2.821959e-27)
(3.007837e-06 -3.017764e-07 -5.579278e-29)
(1.663704e-06 -4.254881e-07 3.50234e-30)
(5.764799e-06 -1.517342e-07 7.442616e-30)
(4.816797e-06 -4.702583e-07 -8.84212e-27)
(8.11107e-06 1.15339e-07 -2.546995e-30)
(7.639066e-06 -4.107765e-07 -3.387097e-31)
(9.923918e-06 5.130008e-07 1.141644e-27)
(9.960711e-06 -2.198567e-07 -2.74757e-30)
(1.112676e-05 1.041487e-06 1.989214e-27)
(1.168339e-05 7.708205e-08 -1.322065e-29)
(1.166325e-05 1.757046e-06 6.838275e-27)
(1.27647e-05 4.818548e-07 -2.525056e-29)
(1.315742e-05 1.096412e-06 -2.320758e-29)
(1.151364e-05 2.831439e-06 4.752557e-27)
(3.459918e-06 -5.94261e-07 -6.548677e-30)
(1.863992e-06 -5.927129e-07 -2.306774e-30)
(6.696065e-06 -7.303821e-07 9.053383e-29)
(5.444326e-06 -9.692362e-07 2.647801e-26)
(9.488291e-06 -7.460625e-07 -3.788278e-28)
(8.691189e-06 -1.216277e-06 1.277962e-26)
(1.171751e-05 -6.555001e-07 5.028585e-31)
(1.142614e-05 -1.340414e-06 -4.295556e-30)
(1.331499e-05 -4.82897e-07 2.740102e-27)
(1.352631e-05 -1.396632e-06 -1.341704e-26)
(1.425481e-05 -2.088079e-07 -5.66484e-30)
(1.494314e-05 -1.420435e-06 -1.452333e-29)
(1.56805e-05 -1.426842e-06 3.5772e-30)
(1.462096e-05 2.063128e-07 1.318946e-30)
(3.818995e-06 -9.642908e-07 -2.040717e-29)
(2.003659e-06 -8.028025e-07 1.261929e-26)
(7.434867e-06 -1.457582e-06 7.690745e-28)
(5.900837e-06 -1.584681e-06 -1.949264e-29)
(1.064314e-05 -1.815742e-06 -2.170033e-29)
(9.500947e-06 -2.198412e-06 -1.470966e-29)
(1.323552e-05 -2.081996e-06 -9.171187e-30)
(1.257377e-05 -2.676021e-06 3.466405e-26)
(1.514972e-05 -2.331851e-06 2.475931e-27)
(1.496953e-05 -3.152738e-06 -9.727627e-30)
(1.633142e-05 -2.610452e-06 -5.582774e-30)
(1.654128e-05 -3.73134e-06 -4.806507e-27)
(1.771651e-05 -4.409929e-06 2.101481e-23)
(1.689189e-05 -5.789302e-07 2.31973e-29)
(4.062873e-06 -1.416487e-06 -1.640945e-28)
(2.068591e-06 -1.055758e-06 -1.069161e-30)
(7.928976e-06 -2.31653e-06 -1.3931e-30)
(6.158572e-06 -2.289966e-06 1.361874e-30)
(1.14356e-05 -3.066785e-06 1.662612e-30)
(1.000077e-05 -3.304139e-06 2.801851e-30)
(1.43287e-05 -3.760847e-06 -6.038308e-30)
(1.330069e-05 -4.218266e-06 -4.912002e-26)
(1.636193e-05 -4.552877e-06 -6.143572e-30)
(1.575394e-05 -5.257409e-06 -5.671896e-27)
(1.754023e-05 -4.814488e-07 5.320939e-23)
(1.820772e-05 -6.567715e-06 3.599112e-30)
(2.413573e-05 -7.999305e-06 3.002601e-22)
(1.839208e-05 2.31454e-05 6.293681e-22)
(4.158696e-06 -1.926494e-06 4.977239e-30)
(2.041905e-06 -1.327997e-06 -1.437935e-26)
(8.198689e-06 -3.26266e-06 -2.45797e-31)
(6.214822e-06 -3.040601e-06 2.728647e-30)
(1.18237e-05 -4.43724e-06 -1.105036e-29)
(1.014305e-05 -4.478e-06 8.26385e-30)
(1.473364e-05 -5.733608e-06 -1.28816e-26)
(1.336134e-05 -6.020143e-06 -8.164064e-30)
(1.667418e-05 -2.131546e-06 1.08995e-22)
(1.686022e-05 -7.772236e-06 2.694933e-29)
(1.784515e-05 2.71087e-05 2.32331e-29)
(2.437768e-05 -9.861495e-06 -7.245939e-22)
(3.824412e-05 -1.375451e-05 7.350931e-29)
(1.865869e-05 9.150487e-05 2.213108e-21)
(4.09369e-06 -2.439492e-06 2.090231e-30)
(1.918088e-06 -1.580159e-06 2.090516e-30)
(8.153823e-06 -4.252256e-06 5.487038e-30)
(6.000925e-06 -3.796065e-06 5.466976e-30)
(1.165019e-05 -6.029125e-06 5.951982e-27)
(9.733784e-06 -5.855703e-06 1.350266e-29)
(1.415315e-05 -4.240325e-06 5.149222e-29)
(1.319984e-05 -8.2579e-06 8.660852e-30)
(1.750159e-05 2.219627e-05 2.604475e-21)
(2.034678e-05 -1.110766e-05 5.065532e-29)
(1.761788e-05 9.14761e-05 1.260422e-28)
(4.180613e-05 -1.303199e-05 2.475006e-21)
(4.593241e-05 -5.355883e-05 4.427394e-21)
(5.381595e-06 0.000162217 -1.5248e-28)
(3.810454e-06 -2.929306e-06 5.456147e-30)
(1.682836e-06 -1.799471e-06 0)
(7.58313e-06 -5.403376e-06 2.114703e-27)
(5.377038e-06 -4.646773e-06 5.567618e-30)
(1.049516e-05 -6.279165e-06 1.107092e-29)
(8.80423e-06 -7.674203e-06 1.798326e-23)
(1.238831e-05 1.673927e-05 7.857154e-30)
(1.552837e-05 -1.11119e-05 2.541937e-22)
(1.40777e-05 8.109273e-05 4.527914e-29)
(2.869719e-05 -1.683637e-05 8.998708e-22)
(1.338341e-05 0.0001544882 3.088529e-28)
(3.698418e-05 -5.264842e-05 -1.179054e-28)
(4.119274e-05 -0.0001897744 1.798477e-28)
(-3.966789e-05 0.0001515698 -2.928294e-29)
(3.224926e-06 -3.497204e-06 6.719715e-32)
(1.323019e-06 -2.045312e-06 2.108772e-30)
(6.193157e-06 -6.961744e-06 2.224465e-29)
(4.170077e-06 -5.779941e-06 8.604221e-32)
(8.440416e-06 4.007766e-06 6.001871e-22)
(8.525136e-06 -1.014999e-05 2.186103e-29)
(9.066084e-06 6.443754e-05 8.795827e-30)
(2.36135e-05 -1.513738e-05 9.128332e-29)
(-4.328476e-06 0.0001409879 -4.103896e-21)
(3.427793e-05 -4.182063e-05 1.195256e-28)
(-5.168007e-05 0.0001532508 -2.461344e-28)
(7.632231e-06 -0.0001747563 3.258087e-21)
(-3.002279e-05 -0.0004270744 -1.763751e-27)
(-6.806304e-05 9.081638e-05 5.094656e-28)
(2.261141e-06 -4.305004e-06 3.272988e-27)
(8.338266e-07 -2.425205e-06 3.651879e-27)
(3.980722e-06 -2.916351e-06 4.447719e-32)
(3.59887e-06 -7.251106e-06 -5.728475e-23)
(4.520652e-06 3.573084e-05 5.94712e-29)
(1.111741e-05 -1.407053e-05 -1.051769e-29)
(7.33312e-08 0.0001114356 6.119195e-21)
(2.337928e-05 -3.307842e-05 9.944156e-29)
(-5.060385e-05 0.0001435048 -6.49403e-21)
(3.121629e-05 -0.0001241877 5.093837e-28)
(-0.000122857 0.0001052665 -1.069286e-20)
(-2.96613e-05 -0.0003626437 4.853279e-21)
(-4.577879e-05 -0.0006246036 -7.904897e-28)
(-0.0001559897 7.057091e-05 -3.103869e-20)
(9.613039e-07 -4.938895e-06 -1.606434e-30)
(3.566435e-07 -2.970514e-06 1.361037e-30)
(1.035148e-06 1.494107e-05 -1.28782e-29)
(4.64326e-06 -9.450986e-06 -2.087591e-22)
(-3.776172e-06 7.855762e-05 -1.153635e-21)
(1.572831e-05 -2.259149e-05 3.045209e-29)
(-3.578485e-05 0.0001245685 5.117437e-21)
(1.887468e-05 -8.246281e-05 1.353141e-28)
(-9.377666e-05 0.0001010447 5.589725e-28)
(-1.930038e-05 -0.0002824252 7.34416e-28)
(-0.0001486576 6.64321e-05 1.088734e-27)
(-6.314917e-05 -0.0005564123 5.87569e-28)
(2.12305e-05 -0.0007638993 4.729842e-20)
(-0.0001911894 8.794625e-05 4.819386e-28)
(-4.287484e-07 -7.980946e-07 2.836467e-30)
(8.996824e-07 -3.533405e-06 5.735524e-23)
(-2.878143e-06 4.296944e-05 3.289553e-22)
(7.624163e-06 -1.306505e-05 1.10507e-29)
(-1.99716e-05 0.0001056025 1.880991e-21)
(1.929797e-05 -4.397115e-05 1.447642e-21)
(-7.539444e-05 0.0001096678 4.636739e-28)
(8.028582e-06 -0.0001758627 3.694557e-28)
(-0.0001501635 6.964882e-05 1.192023e-20)
(-3.5064e-05 -0.0004380355 9.039765e-28)
(-0.0002013777 7.052866e-05 1.246725e-27)
(-6.089758e-05 -0.0007013594 1.052566e-27)
(-4.652418e-05 -0.0009400891 1.068563e-20)
(-0.0001824031 0.000121065 1.042175e-27)
(-1.786538e-06 1.064373e-05 5.334512e-23)
(2.223261e-06 -4.126168e-06 1.560266e-30)
(-8.673748e-06 6.64584e-05 5.431371e-22)
(1.131682e-05 -1.927009e-05 9.021431e-30)
(-4.011335e-05 0.0001034747 2.622069e-21)
(2.085594e-05 -8.489565e-05 -2.052184e-21)
(-0.0001043534 7.962794e-05 4.752493e-21)
(4.708248e-07 -0.0002927758 2.778766e-28)
(-0.0001724912 6.193652e-05 1.47574e-20)
(-2.809979e-05 -0.0005713685 6.212456e-21)
(-0.0002234123 9.947897e-05 2.081134e-20)
(-3.716957e-05 -0.0008222647 -8.915684e-21)