/*--------------------------------*- C++ -*----------------------------------*\
| =========                 |                                                 |
| \\      /  F ield         | OpenFOAM: The Open Source CFD Toolbox           |
|  \\    /   O peration     | Version:  2206                                  |
|   \\  /    A nd           | Website:  www.openfoam.com                      |
|    \\/     M anipulation  |                                                 |
\*---------------------------------------------------------------------------*/
FoamFile
{
    version     2.0;
    format      ascii;
    arch        "LSB;label=32;scalar=64";
    class       surfaceVectorField;
    location    "1.4";
    object      Ufa_0;
}
// * * * * * * * * * * * * * * * * * * * * * * * * * * * * * * * * * * * * * //

dimensions      [0 1 -1 0 0 0 0];

internalField   nonuniform List<vector> 
26037
(
(5.145027e-07 -4.025298e-05 1.396635e-24)
(-9.323559e-06 -3.738271e-05 2.784599e-28)
(-3.528961e-08 -2.51559e-05 -6.660194e-26)
(-5.371126e-06 -2.618728e-05 2.088589e-27)
(-6.136105e-08 -1.688868e-05 -1.349891e-29)
(-2.101135e-06 -1.831842e-05 -1.352957e-29)
(-4.413024e-08 -1.179986e-05 -5.776776e-30)
(-9.69941e-07 -1.298705e-05 0)
(-3.804448e-08 -8.701531e-06 1.800823e-27)
(-5.140473e-07 -9.642797e-06 -5.775886e-30)
(-3.379707e-08 -6.561358e-06 -1.158623e-29)
(-3.047124e-07 -7.330821e-06 -7.190806e-30)
(-1.971761e-07 -5.573711e-06 -5.796057e-30)
(-2.948723e-08 -4.918907e-06 4.990793e-28)
(-1.53727e-05 -2.316099e-05 -3.962842e-33)
(-1.376506e-05 -1.573775e-05 -1.425921e-31)
(-7.502583e-06 -1.933954e-05 -4.00093e-33)
(-8.813689e-06 -1.684151e-05 2.594402e-31)
(-3.008016e-06 -1.440384e-05 0)
(-4.137048e-06 -1.394844e-05 5.815395e-30)
(-1.439856e-06 -1.08299e-05 1.98267e-34)
(-2.154749e-06 -1.101584e-05 1.158795e-29)
(-7.807058e-07 -8.272306e-06 3.27323e-34)
(-1.221432e-06 -8.667785e-06 1.365252e-29)
(-4.680794e-07 -6.343279e-06 4.598162e-34)
(-7.447085e-07 -6.799491e-06 1.291177e-34)
(-4.840081e-07 -5.260044e-06 -2.375629e-30)
(-3.038335e-07 -4.795558e-06 -5.798266e-30)
(-7.224451e-06 -9.370151e-06 1.223574e-31)
(-5.032708e-06 -5.137796e-06 2.265623e-26)
(-5.469771e-06 -1.141372e-05 6.075212e-30)
(-5.129571e-06 -8.881511e-06 -4.22191e-27)
(-3.277543e-06 -1.053082e-05 1.094369e-27)
(-3.553911e-06 -9.392403e-06 7.179842e-30)
(-1.93614e-06 -8.853074e-06 -5.56425e-28)
(-2.285021e-06 -8.483424e-06 1.245277e-29)
(-1.185448e-06 -7.195088e-06 5.786065e-30)
(-1.471286e-06 -7.196229e-06 -7.846532e-30)
(-7.606254e-07 -5.716332e-06 -3.299426e-35)
(-9.724448e-07 -5.907486e-06 0)
(-6.657391e-07 -4.693647e-06 1.827716e-30)
(-5.127116e-07 -4.406671e-06 5.798248e-30)
(-2.936874e-06 -4.644959e-06 4.049103e-31)
(-1.628724e-06 -2.343344e-06 -3.512446e-31)
(-3.222907e-06 -6.840978e-06 1.889591e-30)
(-2.634047e-06 -4.994875e-06 -3.857983e-27)
(-2.552095e-06 -7.31738e-06 1.086237e-28)
(-2.427555e-06 -6.153318e-06 -1.321328e-27)
(-1.819272e-06 -6.816813e-06 7.807547e-31)
(-1.896372e-06 -6.229252e-06 4.932276e-28)
(-1.258289e-06 -5.908632e-06 -1.486827e-34)
(-1.391158e-06 -5.701428e-06 -6.960823e-30)
(-8.775487e-07 -4.884834e-06 -3.375957e-34)
(-1.005269e-06 -4.901412e-06 -1.085397e-35)
(-7.343232e-07 -4.004076e-06 5.802404e-30)
(-6.268631e-07 -3.850817e-06 -5.799745e-30)
(-1.324897e-06 -2.691093e-06 -8.604642e-29)
(-6.159529e-07 -1.392939e-06 -1.476433e-31)
(-1.840167e-06 -4.297809e-06 -1.551061e-28)
(-1.361336e-06 -3.056945e-06 1.589913e-31)
(-1.768128e-06 -5.057933e-06 6.735258e-31)
(-1.539924e-06 -4.121223e-06 1.965213e-31)
(-1.466064e-06 -5.101301e-06 -9.389317e-29)
(-1.4013e-06 -4.505708e-06 1.04462e-29)
(-1.137607e-06 -4.689097e-06 -2.436737e-28)
(-1.160073e-06 -4.393514e-06 -2.556634e-28)
(-8.620362e-07 -4.020643e-06 3.052745e-29)
(-9.179151e-07 -3.94723e-06 -5.817403e-30)
(-7.17587e-07 -3.298757e-06 -6.245402e-30)
(-6.561951e-07 -3.229417e-06 5.80273e-30)
(-6.518133e-07 -1.757504e-06 3.70211e-31)
(-2.676526e-07 -9.796739e-07 0)
(-1.059635e-06 -2.871729e-06 1.038604e-28)
(-7.277637e-07 -2.043917e-06 7.693747e-31)
(-1.172447e-06 -3.570273e-06 -1.565876e-28)
(-9.547698e-07 -2.873281e-06 -5.91873e-30)
(-1.094412e-06 -3.793489e-06 9.519927e-29)
(-9.816275e-07 -3.295466e-06 -5.532813e-30)
(-9.392508e-07 -3.644448e-06 -5.105623e-30)
(-8.98759e-07 -3.344595e-06 9.707245e-29)
(-7.730925e-07 -3.22227e-06 -1.791307e-28)
(-7.765977e-07 -3.10675e-06 -5.169839e-30)
(-6.519824e-07 -2.643766e-06 -1.17126e-29)
(-6.278663e-07 -2.616459e-06 -3.10096e-29)
(-3.43274e-07 -1.265329e-06 3.987616e-31)
(-1.295598e-07 -7.705078e-07 -6.777212e-31)
(-6.211961e-07 -2.039357e-06 -5.119956e-30)
(-4.039711e-07 -1.477351e-06 -5.697751e-28)
(-7.630393e-07 -2.596591e-06 -9.913642e-28)
(-5.906676e-07 -2.093073e-06 -2.454461e-28)
(-7.852808e-07 -2.845012e-06 -4.775716e-30)
(-6.708516e-07 -2.458572e-06 -5.977938e-30)
(-7.356493e-07 -2.804163e-06 5.792538e-29)
(-6.71191e-07 -2.554137e-06 2.095695e-30)
(-6.548068e-07 -2.523748e-06 7.397042e-31)
(-6.266259e-07 -2.405398e-06 1.478799e-30)
(-5.656192e-07 -2.05675e-06 7.331664e-31)
(-5.690904e-07 -2.051744e-06 8.388289e-34)
(-1.901202e-07 -9.821866e-07 -2.693563e-31)
(-6.691758e-08 -6.513123e-07 9.46699e-28)
(-3.732521e-07 -1.529839e-06 8.301217e-31)
(-2.311909e-07 -1.137975e-06 -4.616898e-31)
(-4.984737e-07 -1.953912e-06 4.258378e-31)
(-3.693026e-07 -1.594992e-06 7.252373e-31)
(-5.56937e-07 -2.168485e-06 9.259933e-31)
(-4.564089e-07 -1.882544e-06 7.504531e-31)
(-5.621888e-07 -2.155322e-06 1.659562e-30)
(-4.932038e-07 -1.966385e-06 1.765355e-28)
(-5.372017e-07 -1.93674e-06 3.837762e-29)
(-4.94905e-07 -1.847502e-06 1.480247e-30)
(-4.780884e-07 -1.547996e-06 7.382355e-31)
(-4.994426e-07 -1.544982e-06 -5.111269e-30)
(-1.07912e-07 -8.069019e-07 -8.537265e-31)
(-3.505443e-08 -5.771311e-07 -6.642717e-28)
(-2.271191e-07 -1.202653e-06 -5.673425e-31)
(-1.341344e-07 -9.213593e-07 5.916783e-28)
(-3.263537e-07 -1.520572e-06 7.715538e-29)
(-2.319938e-07 -1.263464e-06 1.442054e-28)
(-3.929645e-07 -1.680989e-06 3.366629e-30)
(-3.100547e-07 -1.476367e-06 1.953683e-30)
(-4.259479e-07 -1.65848e-06 5.60523e-29)
(-3.611625e-07 -1.527027e-06 1.18831e-28)
(-4.358187e-07 -1.458815e-06 7.402949e-31)
(-3.891321e-07 -1.406503e-06 7.400667e-31)
(-4.021806e-07 -1.123621e-06 0)
(-4.326291e-07 -1.101025e-06 -4.331259e-31)
(-6.122464e-08 -6.914411e-07 -1.608508e-31)
(-1.746477e-08 -5.276575e-07 7.210316e-31)
(-1.389187e-07 -9.818338e-07 -1.32451e-30)
(-7.729787e-08 -7.750199e-07 -8.823019e-31)
(-2.148381e-07 -1.21684e-06 7.432588e-31)
(-1.460623e-07 -1.032733e-06 -1.372154e-30)
(-2.786412e-07 -1.322714e-06 1.174969e-30)
(-2.118232e-07 -1.181821e-06 -7.603077e-29)
(-3.243841e-07 -1.274957e-06 -1.923786e-32)
(-2.667276e-07 -1.193434e-06 -5.415544e-29)
(-3.555131e-07 -1.071356e-06 0)
(-3.091868e-07 -1.055618e-06 0)
(-3.421657e-07 -7.701233e-07 0)
(-3.76516e-07 -7.222971e-07 1.043861e-30)
(-3.350195e-08 -6.111209e-07 0)
(-7.168794e-09 -4.927426e-07 0)
(-8.437417e-08 -8.256663e-07 -9.295718e-31)
(-4.281595e-08 -6.709361e-07 9.629403e-31)
(-1.42307e-07 -9.959759e-07 2.534052e-31)
(-9.152562e-08 -8.650348e-07 2.403169e-28)
(-2.003294e-07 -1.052571e-06 1.219028e-30)
(-1.464483e-07 -9.611784e-07 -8.069579e-31)
(-2.5157e-07 -9.739862e-07 1.994011e-32)
(-2.011132e-07 -9.342756e-07 -3.283332e-30)
(-2.958499e-07 -7.544284e-07 0)
(-2.517905e-07 -7.72229e-07 0)
(-2.984461e-07 -4.732782e-07 5.396815e-31)
(-3.340778e-07 -3.996215e-07 4.49222e-31)
(-1.645653e-08 -5.524602e-07 9.625398e-31)
(-9.164423e-10 -4.667532e-07 0)
(-4.991541e-08 -7.101098e-07 2.820535e-32)
(-2.125427e-08 -5.931652e-07 -3.149546e-28)
(-9.503178e-08 -8.290783e-07 -2.938556e-30)
(-5.653845e-08 -7.377779e-07 -1.676951e-30)
(-1.476544e-07 -8.426244e-07 -4.630995e-29)
(-1.034371e-07 -7.898972e-07 1.250099e-28)
(-2.013727e-07 -7.323924e-07 2.409199e-31)
(-1.570411e-07 -7.272249e-07 1.27073e-30)
(-2.543884e-07 -4.911208e-07 5.394957e-31)
(-2.129613e-07 -5.385296e-07 -9.838321e-31)
(-2.697473e-07 -2.204423e-07 4.174408e-31)
(-3.05488e-07 -1.222069e-07 4.218175e-29)
(-5.695027e-09 -5.073741e-07 2.297401e-31)
(2.998618e-09 -4.463633e-07 8.3648e-31)
(-2.783674e-08 -6.206857e-07 -1.946187e-29)
(-7.492141e-09 -5.322045e-07 2.297776e-31)
(-6.438751e-08 -6.979382e-07 -2.002019e-30)
(-3.398301e-08 -6.369686e-07 -1.481064e-30)
(-1.132433e-07 -6.739583e-07 -2.198253e-31)
(-7.57054e-08 -6.518332e-07 -2.01863e-30)
(-1.686676e-07 -5.332165e-07 4.462115e-32)
(-1.289769e-07 -5.566121e-07 -6.579749e-29)
(-2.283143e-07 -2.678955e-07 -9.646565e-31)
(-1.890316e-07 -3.409663e-07 3.92152e-29)
(-2.542624e-07 -1.049667e-09 -4.556221e-29)
(-2.898459e-07 1.196712e-07 1.919705e-32)
(1.215885e-09 -4.711187e-07 8.366414e-31)
(5.514336e-09 -4.29591e-07 -2.039018e-28)
(-1.360574e-08 -5.483773e-07 -7.396833e-31)
(1.406265e-09 -4.821806e-07 0)
(-4.479957e-08 -5.906405e-07 -3.523157e-29)
(-1.9232e-08 -5.536084e-07 -2.218284e-30)
(-9.183902e-08 -5.336962e-07 1.375096e-30)
(-5.671676e-08 -5.361558e-07 8.663843e-30)
(-1.49389e-07 -3.641258e-07 1.117205e-30)
(-1.104828e-07 -4.118375e-07 -1.17386e-28)
(-2.149688e-07 -7.416479e-08 -2.614028e-32)
(-1.765138e-07 -1.69306e-07 -9.849683e-31)
(-2.502103e-07 1.935151e-07 -4.094979e-32)
(-2.858915e-07 3.343023e-07 -1.47e-30)
(5.715791e-09 -4.405851e-07 8.391115e-31)
(7.147836e-09 -4.15129e-07 8.387249e-31)
(-4.194038e-09 -4.873363e-07 -1.476857e-30)
(7.008608e-09 -4.392262e-07 1.074507e-30)
(-3.075823e-08 -4.991544e-07 -5.45295e-29)
(-1.055493e-08 -4.816758e-07 -1.477234e-30)
(-7.540435e-08 -4.136918e-07 5.615468e-28)
(-4.687732e-08 -4.353107e-07 1.601623e-28)
(-1.378411e-07 -2.156084e-07 1.30092e-29)
(-1.023168e-07 -2.8433e-07 1.459211e-29)
(-2.117603e-07 9.846513e-08 -9.999176e-31)
(-1.743951e-07 -1.578974e-08 1.485804e-30)
(-2.565797e-07 3.702181e-07 6.609926e-29)
(-2.924715e-07 5.286685e-07 -1.952206e-30)
(8.449218e-09 -4.137088e-07 1.073988e-30)
(8.248061e-09 -4.020745e-07 0)
(6.646028e-10 -4.335385e-07 1.074724e-30)
(1.041005e-08 -4.006562e-07 -1.705119e-28)
(-2.650838e-08 -4.182142e-07 4.420544e-31)
(-6.210462e-09 -4.169643e-07 -7.362854e-31)
(-7.32792e-08 -3.076647e-07 6.615595e-29)
(-4.441918e-08 -3.447835e-07 -2.973143e-31)
(-1.395197e-07 -8.211256e-08 2.992374e-30)
(-1.036788e-07 -1.684255e-07 1.506848e-30)
(-2.192603e-07 2.562131e-07 5.951865e-29)
(-1.815438e-07 1.257135e-07 1.485158e-30)
(-2.725793e-07 5.349323e-07 4.782573e-31)
(-3.092733e-07 7.08646e-07 1.953979e-30)
(1.021552e-08 -3.88966e-07 2.176761e-30)
(9.021588e-09 -3.897984e-07 1.221981e-30)
(3.548125e-09 -3.840663e-07 1.442371e-30)
(1.242553e-08 -3.64532e-07 -1.461988e-28)
(-2.406225e-08 -3.436178e-07 -2.88237e-29)
(-4.279449e-09 -3.562889e-07 -2.207442e-30)
(-7.39106e-08 -2.082205e-07 -7.510978e-31)
(-4.469298e-08 -2.59395e-07 -1.478371e-30)
(-1.465777e-07 4.274896e-08 0)
(-1.096387e-07 -5.815345e-08 0)
(-2.349334e-07 4.047905e-07 0)
(-1.960123e-07 2.605555e-07 -3.57216e-31)
(-2.974926e-07 6.928743e-07 -2.953532e-30)
(-3.356067e-07 8.795418e-07 -1.474972e-30)
(1.123676e-08 -3.653141e-07 2.242445e-29)
(9.571624e-09 -3.778181e-07 -9.605988e-29)
(4.610606e-09 -3.36749e-07 -1.131929e-29)
(1.341333e-08 -3.293544e-07 1.526433e-30)
(-2.485491e-08 -2.721558e-07 -2.868362e-29)
(-4.505545e-09 -2.971182e-07 -3.676196e-30)
(-7.937719e-08 -1.125108e-07 -7.508784e-31)
(-4.864995e-08 -1.75941e-07 -2.215862e-30)
(-1.60077e-07 1.634089e-07 -3.613686e-31)
(-1.209137e-07 4.996448e-08 0)
(-2.586526e-07 5.490301e-07 -5.371848e-29)
(-2.176799e-07 3.930655e-07 -7.584782e-29)
(-3.312369e-07 8.488139e-07 -4.428696e-30)
(-3.71518e-07 1.046214e-06 -3.560039e-29)
(1.175204e-08 -3.41814e-07 2.327903e-29)
(1.000425e-08 -3.656883e-07 2.197952e-30)
(4.309509e-09 -2.897284e-07 -1.166199e-29)
(1.374119e-08 -2.937986e-07 -8.696489e-29)
(-2.824031e-08 -2.01026e-07 -5.540008e-29)
(-6.31536e-09 -2.372607e-07 -1.054145e-30)
(-8.901357e-08 -1.708023e-08 -1.500627e-30)
(-5.519789e-08 -9.142343e-08 -1.476616e-30)
(-1.796206e-07 2.836001e-07 1.141869e-30)
(-1.34349e-07 1.588735e-07 1.196952e-29)
(-2.903972e-07 6.934313e-07 -3.507228e-31)
(-2.429076e-07 5.256394e-07 1.609139e-29)
(-3.733289e-07 1.007284e-06 1.483775e-30)
(-4.172839e-07 1.2134e-06 -2.994675e-29)
(1.199583e-08 -3.176349e-07 3.324699e-30)
(1.045476e-08 -3.529604e-07 -2.871482e-29)
(3.128625e-09 -2.413455e-07 3.498526e-30)
(1.371787e-08 -2.565696e-07 -4.049387e-29)
(-3.321471e-08 -1.277846e-07 1.151146e-30)
(-9.450409e-09 -1.746356e-07 -5.878755e-29)
(-9.948514e-08 8.133744e-08 1.186102e-29)
(-6.4991e-08 -3.010971e-09 2.608776e-30)
(-1.980667e-07 4.027168e-07 4.569474e-28)
(-1.543074e-07 2.721469e-07 1.339524e-29)
(-3.266991e-07 8.427555e-07 9.773105e-29)
(-2.768091e-07 6.636725e-07 1.67097e-29)
(-4.256919e-07 1.173032e-06 3.033674e-31)
(-4.727869e-07 1.386063e-06 2.959412e-30)
(1.217745e-08 -2.918644e-07 -1.955431e-29)
(1.109732e-08 -3.392263e-07 6.837637e-31)
(1.15069e-09 -1.898859e-07 1.634108e-29)
(1.378232e-08 -2.164082e-07 1.732132e-29)
(-4.118205e-08 -4.997245e-08 5.667629e-30)
(-1.32433e-08 -1.071157e-07 -9.129598e-30)
(-1.191733e-07 1.857047e-07 5.784734e-29)
(-7.723459e-08 9.217455e-08 -3.668549e-29)
(-2.314352e-07 5.27981e-07 3.155015e-30)
(-1.80363e-07 3.937412e-07 1.478651e-30)
(-3.776462e-07 1.00028e-06 -1.043605e-30)
(-3.204567e-07 8.129921e-07 -9.41536e-29)
(-4.891043e-07 1.351262e-06 1.226082e-28)
(-5.413271e-07 1.568986e-06 -2.683673e-29)
(1.270028e-08 -2.637475e-07 1.950609e-30)
(1.217569e-08 -3.241183e-07 -1.057588e-30)
(-6.007652e-10 -1.336753e-07 1.521239e-29)
(1.472183e-08 -1.72149e-07 1.950894e-30)
(-4.926438e-08 3.4963e-08 4.214637e-30)
(-1.638107e-08 -3.267574e-08 1.908853e-30)
(-1.382187e-07 2.996285e-07 2.309177e-30)
(-8.952155e-08 1.971537e-07 4.089953e-30)
(-2.665514e-07 6.703171e-07 1.641339e-30)
(-2.070453e-07 5.293615e-07 2.761115e-31)
(-4.345606e-07 1.172461e-06 1.679789e-30)
(-3.682154e-07 9.793657e-07 1.67612e-30)
(-5.621643e-07 1.547402e-06 -1.417748e-28)
(-6.214097e-07 1.767974e-06 4.101011e-30)
(1.419151e-08 -2.325076e-07 -1.057779e-30)
(1.410782e-08 -3.072362e-07 -2.009132e-28)
(-1.049445e-09 -7.12008e-08 0)
(1.76805e-08 -1.226597e-07 0)
(-5.660538e-08 1.294311e-07 1.43029e-30)
(-1.724539e-08 5.056671e-08 0)
(-1.581524e-07 4.263593e-07 5.690407e-29)
(-1.003738e-07 3.146396e-07 -6.276566e-29)
(-3.05345e-07 8.290574e-07 2.817842e-31)
(-2.340837e-07 6.812951e-07 3.104739e-29)
(-4.988603e-07 1.363266e-06 1.218918e-30)
(-4.163455e-07 1.163906e-06 1.252786e-30)
(-6.393513e-07 1.763213e-06 1.211016e-30)
(-7.137402e-07 1.989132e-06 -6.302395e-31)
(1.758536e-08 -1.973874e-07 -2.144955e-30)
(1.750617e-08 -2.882478e-07 -3.333746e-28)
(1.489965e-09 -9.578562e-10 0)
(2.432659e-08 -6.688711e-08 7.305983e-31)
(-6.098035e-08 2.356731e-07 -2.655359e-30)
(-1.33926e-08 1.444429e-07 -5.820843e-31)
(-1.761166e-07 5.690799e-07 -6.565968e-29)
(-1.071351e-07 4.472618e-07 -1.195924e-30)
(-3.420054e-07 1.008078e-06 -2.664064e-30)
(-2.598796e-07 8.530106e-07 -7.979599e-29)
(-5.582861e-07 1.568214e-06 1.260641e-30)
(-4.68338e-07 1.371582e-06 5.545191e-29)
(-7.261389e-07 2.007248e-06 0)
(-8.136611e-07 2.239168e-06 -1.226696e-30)
(2.422717e-08 -1.57761e-07 -3.582005e-31)
(2.328696e-08 -2.668814e-07 -1.087685e-30)
(9.442725e-09 7.843104e-08 1.865558e-29)
(3.724819e-08 -4.002387e-09 2.135846e-30)
(-5.951648e-08 3.5591e-07 8.765362e-31)
(-8.941219e-10 2.504855e-07 -4.595706e-28)
(-1.907645e-07 7.307982e-07 6.599047e-29)
(-1.048903e-07 5.974078e-07 1.4589e-30)
(-3.843107e-07 1.21131e-06 2.72448e-30)
(-2.790349e-07 1.047641e-06 1.825792e-28)
(-6.319582e-07 1.800121e-06 1.2603e-30)
(-5.199035e-07 1.607229e-06 7.118589e-30)
(-8.202873e-07 2.286965e-06 3.03625e-30)
(-9.314987e-07 2.52236e-06 -4.254317e-30)
(3.627493e-08 -1.131517e-07 1.404707e-30)
(3.274454e-08 -2.429772e-07 1.196462e-30)
(2.689892e-08 1.679518e-07 9.384851e-32)
(6.015136e-08 6.645341e-08 8.25916e-28)
(-4.624333e-08 4.918386e-07 -1.313154e-30)
(2.612059e-08 3.69596e-07 -2.709606e-30)
(-1.930805e-07 9.140032e-07 4.124244e-30)
(-8.593604e-08 7.665919e-07 0)
(-4.140331e-07 1.442102e-06 1.360995e-28)
(-2.81752e-07 1.267784e-06 1.213178e-30)
(-7.00581e-07 2.076743e-06 1.193315e-28)
(-5.576963e-07 1.878319e-06 5.881108e-30)
(-9.085578e-07 2.608923e-06 6.070395e-30)
(-1.051828e-06 2.846991e-06 -5.256528e-32)
(5.656896e-08 -6.342216e-08 2.60685e-30)
(4.759391e-08 -2.164986e-07 9.817071e-28)
(5.934305e-08 2.679802e-07 1.491623e-32)
(9.807968e-08 1.44394e-07 2.930656e-30)
(-1.355941e-08 6.441802e-07 -1.397669e-30)
(7.557585e-08 5.017428e-07 -1.006115e-27)
(-1.745325e-07 1.120098e-06 -2.909068e-30)
(-4.009909e-08 9.550138e-07 0)
(-4.248541e-07 1.702697e-06 -1.489396e-28)
(-2.567162e-07 1.514182e-06 -2.909484e-30)
(-7.564213e-07 2.391226e-06 1.33813e-28)
(-5.706134e-07 2.18341e-06 1.270165e-30)
(-9.746653e-07 2.969032e-06 -2.228878e-29)
(-1.169148e-06 3.215448e-06 1.607966e-30)
(8.901838e-08 -8.818904e-09 2.724686e-30)
(6.995686e-08 -1.876159e-07 1.90686e-30)
(1.142583e-07 3.78066e-07 1.161996e-31)
(1.575901e-07 2.289265e-07 1.536021e-27)
(4.902662e-08 8.123812e-07 -1.404999e-30)
(1.580641e-07 6.454784e-07 -1.403898e-30)
(-1.222206e-07 1.348787e-06 0)
(4.657208e-08 1.161042e-06 -4.337822e-30)
(-4.019482e-07 1.993685e-06 1.267999e-30)
(-1.877097e-07 1.7854e-06 -2.899056e-30)
(-7.801698e-07 2.744578e-06 -2.365853e-29)
(-5.422841e-07 2.521712e-06 7.438767e-28)
(-1.006392e-06 3.370177e-06 -7.439911e-28)
(-1.251442e-06 3.613053e-06 -6.887531e-28)
(1.383461e-07 4.973046e-08 -6.112435e-29)
(1.03294e-07 -1.564989e-07 1.605794e-27)
(2.013077e-07 4.963436e-07 8.111086e-31)
(2.481681e-07 3.174158e-07 8.131276e-31)
(1.555626e-07 9.939243e-07 -4.334274e-30)
(2.878157e-07 7.972226e-07 1.518221e-31)
(-1.8886e-08 1.597308e-06 -2.417925e-28)
(1.928115e-07 1.38031e-06 -1.69889e-27)
(-3.277635e-07 2.31246e-06 2.559516e-30)
(-5.202559e-08 2.076608e-06 -1.474054e-30)
(-7.638413e-07 3.136087e-06 1.751026e-28)
(-4.470125e-07 2.888525e-06 1.084294e-27)
(-9.805571e-07 3.809457e-06 6.126328e-28)
(-1.308393e-06 4.053384e-06 -2.884951e-30)
(2.125291e-07 1.094843e-07 1.303938e-30)
(1.500966e-07 -1.255409e-07 1.292066e-30)
(3.347976e-07 6.191358e-07 1.522006e-31)
(3.792968e-07 4.056727e-07 0)
(3.249736e-07 1.183531e-06 -1.461519e-28)
(4.816813e-07 9.503849e-07 2.412425e-27)
(1.596538e-07 1.859238e-06 -1.479675e-30)
(4.220743e-07 1.604291e-06 -2.898247e-30)
(-1.7116e-07 2.652089e-06 4.066487e-30)
(1.797249e-07 2.3778e-06 2.082794e-27)
(-6.622302e-07 3.558765e-06 3.947515e-30)
(-2.490532e-07 3.273646e-06 1.715005e-27)
(-8.529644e-07 4.285231e-06 -1.820638e-32)
(-1.296821e-06 4.56246e-06 4.508172e-30)
(3.144971e-07 1.65994e-07 0)
(2.150866e-07 -9.798301e-08 1.751267e-31)
(5.262571e-07 7.384934e-07 3.353821e-30)
(5.635432e-07 4.861774e-07 -3.103013e-30)
(5.786012e-07 1.371412e-06 3.34125e-30)
(7.619035e-07 1.092706e-06 3.120338e-27)
(4.420465e-07 2.122475e-06 2.924918e-30)
(7.630797e-07 1.819019e-06 0)
(1.018756e-07 2.998751e-06 4.279791e-30)
(5.425417e-07 2.672226e-06 2.866312e-27)
(-4.386199e-07 3.997814e-06 4.134208e-32)
(9.163713e-08 3.657257e-06 1.351801e-30)
(-5.796909e-07 4.769202e-06 -2.193983e-27)
(-1.161242e-06 5.10267e-06 -1.334477e-30)
(4.610107e-07 2.168867e-07 -1.168028e-28)
(3.040741e-07 -7.583029e-08 2.378356e-27)
(7.99559e-07 8.398694e-07 -5.604564e-30)
(8.154385e-07 5.501071e-07 -3.029507e-27)
(9.473325e-07 1.54298e-06 -2.480054e-30)
(1.153763e-06 1.209297e-06 -6.696234e-27)
(8.63442e-07 2.369055e-06 1.518079e-30)
(1.251956e-06 2.001043e-06 -1.84665e-30)
(5.322222e-07 3.330128e-06 1.517721e-30)
(1.07821e-06 2.934789e-06 6.109672e-30)
(-4.908835e-08 4.426913e-06 -7.066284e-30)
(6.237337e-07 4.009582e-06 2.863542e-30)
(-1.074602e-07 5.22693e-06 -9.931774e-30)
(-8.632102e-07 5.645358e-06 -4.616455e-28)
(6.55414e-07 2.543928e-07 -3.482717e-31)
(4.206593e-07 -6.270759e-08 1.911541e-30)
(1.165802e-06 9.139049e-07 -7.764137e-30)
(1.145936e-06 5.887778e-07 -9.946018e-31)
(1.460196e-06 1.667288e-06 -7.996442e-30)
(1.676162e-06 1.282831e-06 -3.470877e-27)
(1.468098e-06 2.57258e-06 4.386006e-28)
(1.925518e-06 2.126292e-06 -8.596612e-27)
(1.169475e-06 3.614249e-06 7.454752e-30)
(1.831922e-06 3.130569e-06 5.13711e-27)
(5.653227e-07 4.808691e-06 4.572885e-28)
(1.403319e-06 4.287939e-06 8.565686e-30)
(6.312484e-07 5.609973e-06 8.540495e-30)
(-3.345742e-07 6.14762e-06 -6.821578e-28)
(9.099605e-07 2.709398e-07 5.207337e-29)
(5.698862e-07 -6.270491e-08 1.454805e-33)
(1.650252e-06 9.530333e-07 1.77342e-30)
(1.57431e-06 5.917374e-07 2.13899e-33)
(2.133278e-06 1.729664e-06 4.175081e-28)
(2.349297e-06 1.297032e-06 -3.662711e-30)
(2.286893e-06 2.69571e-06 -8.308457e-28)
(2.804245e-06 2.164265e-06 -3.584411e-29)
(2.064855e-06 3.805631e-06 1.753651e-30)
(2.854899e-06 3.208165e-06 -3.290445e-29)
(1.46893e-06 5.088431e-06 1.089611e-27)
(2.491431e-06 4.433512e-06 -1.951154e-30)
(1.709638e-06 5.847002e-06 1.138745e-29)
(5.020277e-07 6.546946e-06 1.0222e-27)
(1.233185e-06 2.57651e-07 -4.448143e-29)
(7.543952e-07 -8.018631e-08 -5.577904e-31)
(2.271248e-06 9.344312e-07 -5.42305e-30)
(2.107982e-06 5.435938e-07 -7.044387e-31)
(3.013655e-06 1.715807e-06 -3.42271e-28)
(3.199703e-06 1.229434e-06 -2.985808e-27)
(3.380075e-06 2.680378e-06 -2.850788e-27)
(3.93612e-06 2.075205e-06 -4.155768e-27)
(3.286416e-06 3.844725e-06 -9.410442e-28)
(4.205712e-06 3.1119e-06 -2.306438e-30)
(2.731753e-06 5.193095e-06 -7.657149e-30)
(3.955314e-06 4.363511e-06 -1.014223e-26)
(3.202577e-06 5.844417e-06 0)
(1.729849e-06 6.75319e-06 -1.304328e-30)
(1.627915e-06 2.053701e-07 0)
(9.736508e-07 -1.195115e-07 -1.108731e-30)
(3.034357e-06 8.379558e-07 -1.993682e-30)
(2.746235e-06 4.308768e-07 1.400682e-30)
(4.108578e-06 1.582026e-06 1.602621e-30)
(4.224513e-06 1.053629e-06 7.991262e-31)
(4.750948e-06 2.495229e-06 2.885774e-28)
(5.296659e-06 1.832248e-06 3.605254e-30)
(4.885418e-06 3.632128e-06 2.106538e-27)
(5.880928e-06 2.791671e-06 -5.03485e-27)
(4.430719e-06 5.02793e-06 2.08733e-29)
(5.850967e-06 3.997031e-06 1.523475e-29)
(5.170208e-06 5.489281e-06 -1.13678e-29)
(3.434907e-06 6.649201e-06 1.486937e-30)
(2.090452e-06 1.056947e-07 -5.847131e-29)
(1.222444e-06 -1.843719e-07 1.987121e-30)
(3.934587e-06 6.462344e-07 2.377179e-28)
(3.475381e-06 2.421322e-07 2.795971e-30)
(5.408562e-06 1.30284e-06 2.794421e-30)
(5.404651e-06 7.497705e-07 5.206474e-30)
(6.405571e-06 2.121464e-06 -4.35781e-30)
(6.882579e-06 1.408324e-06 0)
(6.825071e-06 3.138027e-06 -1.018169e-29)
(7.81521e-06 2.227992e-06 -3.777693e-27)
(6.570414e-06 4.49075e-06 -1.604397e-28)
(8.088671e-06 3.288426e-06 -4.86417e-29)
(7.641443e-06 4.649828e-06 -6.858194e-29)
(5.680423e-06 6.091134e-06 -1.323306e-27)
(2.605609e-06 -4.811311e-08 5.791528e-29)
(1.488618e-06 -2.776111e-07 -4.747025e-27)
(4.943438e-06 3.455087e-07 3.810316e-30)
(4.261145e-06 -3.214078e-08 5.45004e-30)
(6.87629e-06 8.549148e-07 2.417309e-30)
(6.685234e-06 3.020851e-07 -4.410488e-27)
(8.2874e-06 1.512749e-06 3.240142e-30)
(8.617206e-06 7.752636e-07 -5.547137e-30)
(9.077685e-06 2.34539e-06 -1.415606e-27)
(9.960177e-06 1.381929e-06 -7.847101e-30)
(9.185443e-06 3.447514e-06 9.825311e-27)
(1.066009e-05 2.153639e-06 -5.096286e-28)
(1.059127e-05 3.214622e-06 -8.115338e-29)
(8.522199e-06 4.913058e-06 -1.711423e-27)
(3.141155e-06 -2.617919e-07 6.808736e-29)
(1.749812e-06 -4.01275e-07 3.150211e-30)
(6.00163e-06 -7.556441e-08 6.578212e-30)
(5.041799e-06 -4.011624e-07 -8.996775e-27)
(8.423687e-06 2.22373e-07 -3.012937e-30)
(7.972263e-06 -3.021433e-07 -2.958422e-31)
(1.028525e-05 6.443545e-07 1.075805e-27)
(1.037257e-05 -7.936923e-08 -2.76487e-30)
(1.15079e-05 1.190311e-06 1.913954e-27)
(1.214406e-05 2.4067e-07 -1.381327e-29)
(1.202824e-05 1.91696e-06 6.874278e-27)
(1.324197e-05 6.59245e-07 -2.511483e-29)
(1.36069e-05 1.277401e-06 -2.351642e-29)
(1.181022e-05 3.000271e-06 5.447912e-27)
(3.637175e-06 -5.410094e-07 -6.078925e-30)
(1.975722e-06 -5.603794e-07 -1.895049e-30)
(7.01772e-06 -6.287157e-07 3.820444e-29)
(5.742924e-06 -8.766321e-07 2.574311e-26)
(9.920717e-06 -6.03969e-07 -3.255188e-28)
(9.140444e-06 -1.070925e-06 1.291596e-26)
(1.222858e-05 -4.828078e-07 2.664107e-32)
(1.199107e-05 -1.152941e-06 -3.260936e-30)
(1.387158e-05 -2.908138e-07 2.503243e-27)
(1.417139e-05 -1.180017e-06 -1.408647e-26)
(1.481827e-05 -1.036996e-08 -5.732018e-30)
(1.563238e-05 -1.189506e-06 -1.417459e-29)
(1.63743e-05 -1.199462e-06 -9.26869e-31)
(1.514433e-05 3.976108e-07 1.354876e-30)
(4.050465e-06 -8.930044e-07 -1.898399e-29)
(2.146368e-06 -7.594426e-07 1.200699e-26)
(7.861121e-06 -1.32125e-06 3.741973e-28)
(6.288542e-06 -1.460027e-06 -1.848598e-29)
(1.122593e-05 -1.624641e-06 -2.020617e-29)
(1.009241e-05 -2.002191e-06 -1.423443e-29)
(1.393449e-05 -1.850564e-06 -8.703558e-30)
(1.332518e-05 -2.423207e-06 3.485832e-26)
(1.592708e-05 -2.07646e-06 2.205398e-27)
(1.583984e-05 -2.861115e-06 -9.17701e-30)
(1.714791e-05 -2.351201e-06 -9.548605e-30)
(1.748954e-05 -3.42239e-06 -4.917012e-27)
(1.869978e-05 -4.109403e-06 -8.082755e-31)
(1.76998e-05 -2.679701e-07 -1.168105e-29)
(4.360086e-06 -1.320225e-06 -3.11976e-28)
(2.247839e-06 -9.975074e-07 -1.094956e-30)
(8.479375e-06 -2.132826e-06 -1.396819e-30)
(6.64947e-06 -2.122495e-06 1.364598e-30)
(1.219676e-05 -2.808397e-06 1.679058e-30)
(1.075798e-05 -3.038843e-06 2.813819e-30)
(1.525363e-05 -3.44704e-06 -4.910228e-30)
(1.427256e-05 -3.875672e-06 -4.687556e-26)
(1.740325e-05 -4.207588e-06 -9.155379e-30)
(1.68865e-05 -4.865398e-06 -7.17125e-27)
(1.866004e-05 2.993604e-08 -2.551818e-30)
(1.945295e-05 -6.153015e-06 -6.591588e-30)
(2.543682e-05 -7.518776e-06 -3.069354e-29)
(1.955978e-05 2.445974e-05 -3.602131e-29)
(4.531012e-06 -1.797134e-06 4.521939e-30)
(2.261758e-06 -1.250493e-06 -1.308133e-26)
(8.893179e-06 -3.014785e-06 1.451157e-28)
(6.821514e-06 -2.816934e-06 2.735021e-30)
(1.278782e-05 -4.089113e-06 -1.233903e-29)
(1.108259e-05 -4.123234e-06 8.295368e-30)
(1.591564e-05 -5.311689e-06 -1.513928e-26)
(1.45791e-05 -5.561701e-06 -9.322209e-30)
(1.8023e-05 -1.501635e-06 -2.610561e-29)
(1.829486e-05 -7.253867e-06 1.197608e-22)
(1.933609e-05 2.882245e-05 -7.942117e-22)
(2.595568e-05 -9.234679e-06 7.227014e-22)
(4.004012e-05 -1.271091e-05 -7.14431e-29)
(2.038822e-05 9.569711e-05 -2.283468e-21)
(4.54736e-06 -2.26777e-06 1.608337e-30)
(2.179916e-06 -1.479043e-06 1.608556e-30)
(9.004751e-06 -3.92197e-06 5.506706e-30)
(6.728469e-06 -3.502615e-06 5.474657e-30)
(1.283827e-05 -5.566134e-06 6.468416e-27)
(1.086659e-05 -5.389175e-06 1.071616e-29)
(1.561603e-05 -3.562028e-06 1.160848e-29)
(1.466998e-05 -7.66094e-06 7.645863e-30)
(1.926269e-05 2.393187e-05 1.62439e-29)
(2.207641e-05 -1.036182e-05 -4.819844e-30)
(1.974198e-05 9.605679e-05 -3.125257e-29)
(4.411494e-05 -1.176944e-05 -2.047469e-28)
(5.106821e-05 -4.665468e-05 -1.161559e-27)
(1.005397e-05 0.0001755545 -4.833596e-21)
(4.344551e-06 -2.706956e-06 5.463813e-30)
(1.983677e-06 -1.671831e-06 0)
(8.593113e-06 -4.973273e-06 2.497424e-27)
(6.220005e-06 -4.272526e-06 6.686423e-30)
(1.191417e-05 -5.619518e-06 7.108607e-30)
(1.012203e-05 -7.07461e-06 -1.408808e-29)
(1.41674e-05 1.843198e-05 -8.394817e-30)
(1.722905e-05 -1.029381e-05 2.530688e-22)
(1.638066e-05 8.552224e-05 -2.107431e-21)
(3.085526e-05 -1.548167e-05 8.951448e-22)
(1.936e-05 0.0001683152 -1.700998e-20)
(4.247666e-05 -4.550932e-05 -6.995944e-28)
(5.277095e-05 -0.0001723467 -2.351756e-27)
(-2.978275e-05 0.0001783786 -7.835838e-28)
(3.830833e-06 -3.219266e-06 1.171954e-30)
(1.654881e-06 -1.89115e-06 1.620151e-30)
(7.346708e-06 -6.416662e-06 -1.84451e-29)
(5.103631e-06 -5.32014e-06 8.427696e-27)
(1.008438e-05 5.309961e-06 -6.192054e-22)
(9.972013e-06 -9.386926e-06 -1.891286e-29)
(1.134069e-05 6.84667e-05 -1.099612e-29)
(2.570392e-05 -1.383055e-05 -2.211779e-29)
(1.375026e-06 0.0001543121 -4.647197e-28)
(3.888011e-05 -3.594964e-05 1.997861e-30)
(-4.036303e-05 0.0001815643 -1.507542e-20)
(1.880682e-05 -0.0001564048 -3.241589e-21)
(-1.730927e-05 -0.0004075025 -1.167883e-27)
(-5.382793e-05 0.0001252502 -2.510026e-27)
(2.917531e-06 -3.970576e-06 3.43127e-27)
(1.182312e-06 -2.252272e-06 6.499799e-27)
(5.224615e-06 -2.042364e-06 2.566933e-30)
(4.567649e-06 -6.729207e-06 2.194534e-30)
(6.429651e-06 3.863227e-05 1.102062e-30)
(1.268952e-05 -1.293621e-05 2.563467e-30)
(4.87345e-06 0.0001222128 -9.105556e-30)
(2.669791e-05 -2.87495e-05 -1.972143e-29)
(-3.961381e-05 0.0001708972 -3.801175e-29)
(4.15607e-05 -0.0001069684 5.462362e-28)
(-0.0001087891 0.0001428814 -2.992782e-29)
(-1.579585e-05 -0.0003386946 4.835031e-21)
(-3.386812e-05 -0.0006106859 1.943694e-27)
(-0.0001429945 0.0001062202 1.869488e-29)
(1.629942e-06 -4.561943e-06 3.644022e-31)
(6.990918e-07 -2.806596e-06 3.216366e-31)
(2.411082e-06 1.681177e-05 2.191072e-30)
(5.61793e-06 -8.75468e-06 -1.116074e-31)
(-5.359473e-07 8.62925e-05 -1.787089e-29)
(1.775384e-05 -1.994724e-05 8.777694e-22)
(-2.678525e-05 0.0001480131 5.28121e-28)
(2.523288e-05 -7.006801e-05 -2.069868e-21)
(-7.936822e-05 0.0001391274 1.755137e-20)
(-6.345283e-06 -0.0002562635 5.710748e-28)
(-0.0001343369 0.0001055493 3.140042e-27)
(-5.08597e-05 -0.0005359716 5.911513e-21)
(3.451851e-05 -0.0007555786 4.767793e-20)
(-0.0001784783 0.0001240156 4.026456e-20)
(2.494132e-07 -8.97791e-08 -1.540661e-31)
(1.197178e-06 -3.356079e-06 -2.562678e-33)
(-1.080294e-06 4.736948e-05 2.427729e-29)
(8.62202e-06 -1.190439e-05 -2.181943e-31)
(-1.430346e-05 0.0001222822 1.941123e-21)
(2.239345e-05 -3.739342e-05 7.4094e-29)
(-6.401721e-05 0.0001440271 8.462986e-29)
(1.729771e-05 -0.0001537148 2.120366e-28)
(-0.0001368953 0.0001114207 -3.509416e-29)
(-2.286872e-05 -0.0004115197 4.984281e-21)
(-0.0001892191 0.0001100053 2.325395e-27)
(-5.066433e-05 -0.0006862257 -1.201855e-28)
(-3.716064e-05 -0.0009362767 -1.065087e-20)
(-0.0001687665 0.0001592705 8.833762e-20)
(-1.100244e-06 1.214783e-05 -6.677235e-32)
(2.447265e-06 -3.9264e-06 3.430334e-31)
(-6.091472e-06 7.522737e-05 4.964324e-29)
(1.241233e-05 -1.7046e-05 -1.86723e-31)
(-3.267365e-05 0.0001295533 2.706319e-21)
(2.536617e-05 -7.20722e-05 2.04098e-21)
(-9.285092e-05 0.0001203598 1.789122e-28)
(1.046151e-05 -0.0002650294 3.856589e-21)
(-0.0001609507 0.0001044216 -3.335914e-29)
(-1.784402e-05 -0.0005484445 6.17886e-21)
(-0.0002126854 0.0001403136 -1.520551e-28)