/*--------------------------------*- C++ -*----------------------------------*\
| =========                 |                                                 |
| \\      /  F ield         | OpenFOAM: The Open Source CFD Toolbox           |
|  \\    /   O peration     | Version:  2206                                  |
|   \\  /    A nd           | Website:  www.openfoam.com                      |
|    \\/     M anipulation  |                                                 |
\*---------------------------------------------------------------------------*/
FoamFile
{
    version     2.0;
    format      ascii;
    arch        "LSB;label=32;scalar=64";
    class       surfaceVectorField;
    location    "1.4";
    object      Ufb;
}
// * * * * * * * * * * * * * * * * * * * * * * * * * * * * * * * * * * * * * //

dimensions      [0 1 -1 0 0 0 0];

internalField   nonuniform List<vector> 
26037
(
(-1.754315e-06 4.009793e-05 4.927963e-22)
(1.094216e-05 8.064241e-06 -1.281238e-27)
(-1.562254e-06 2.459125e-05 -1.262436e-22)
(8.333055e-06 1.861459e-05 2.013277e-24)
(-1.682741e-06 1.30768e-05 9.530187e-28)
(1.523759e-06 1.669924e-05 9.551828e-28)
(-1.780803e-06 7.617642e-06 2.029417e-28)
(-1.246664e-06 1.05468e-05 0)
(-1.862727e-06 4.835248e-06 5.227913e-24)
(-1.906453e-06 6.525155e-06 2.033013e-28)
(-1.956087e-06 3.036001e-06 2.377537e-28)
(-2.113075e-06 4.132376e-06 -3.668553e-27)
(-2.21984e-06 2.467596e-06 9.744694e-29)
(-2.057006e-06 1.655583e-06 1.457416e-24)
(7.486468e-06 2.165891e-05 -6.696265e-30)
(2.983497e-05 2.823002e-06 8.315587e-28)
(3.829274e-06 1.803881e-05 -6.760625e-30)
(1.23108e-05 1.47846e-05 -4.800407e-28)
(1.924732e-07 1.186978e-05 0)
(3.542891e-06 1.315648e-05 -2.768021e-28)
(-1.565698e-06 7.632076e-06 3.839991e-31)
(-3.60418e-07 9.424345e-06 -4.584315e-28)
(-2.134698e-06 4.956453e-06 7.181113e-31)
(-1.806528e-06 6.410718e-06 2.392368e-26)
(-2.344201e-06 3.124859e-06 1.136008e-30)
(-2.342036e-06 4.239857e-06 3.342295e-31)
(-2.542517e-06 2.602339e-06 -6.619671e-27)
(-2.440834e-06 1.711054e-06 6.067915e-29)
(1.79784e-05 1.229592e-05 3.55843e-28)
(1.843788e-05 3.609971e-06 4.386322e-23)
(7.280686e-06 1.248499e-05 -7.570066e-28)
(9.609365e-06 9.645674e-06 -1.01667e-23)
(1.50428e-06 1.015255e-05 3.171174e-24)
(3.726759e-06 9.832889e-06 -6.587221e-28)
(-1.030658e-06 7.389115e-06 -1.593655e-24)
(1.983578e-07 8.221796e-06 -5.482077e-28)
(-2.094296e-06 5.138769e-06 -1.757506e-28)
(-1.543258e-06 6.200715e-06 -4.096489e-26)
(-2.521186e-06 3.381926e-06 5.268058e-34)
(-2.336236e-06 4.381489e-06 0)
(-2.676345e-06 2.838611e-06 5.060635e-27)
(-2.688218e-06 1.948584e-06 -6.054901e-29)
(1.263951e-05 7.740177e-06 -1.773905e-28)
(1.226583e-05 3.025886e-06 4.797775e-28)
(6.318245e-06 9.357029e-06 -1.038957e-27)
(7.464409e-06 7.134856e-06 -1.086875e-23)
(1.943001e-06 8.638344e-06 3.023571e-25)
(3.394004e-06 7.93828e-06 -3.790627e-24)
(-5.736488e-07 7.000761e-06 -8.687369e-29)
(5.372338e-07 7.263687e-06 1.374794e-24)
(-1.856812e-06 5.2448e-06 6.185588e-32)
(-1.199972e-06 5.939515e-06 1.61791e-28)
(-2.483559e-06 3.657472e-06 -7.674113e-31)
(-2.151066e-06 4.474157e-06 1.558581e-33)
(-2.632702e-06 3.078123e-06 -8.000581e-29)
(-2.766588e-06 2.260674e-06 5.678413e-29)
(8.931384e-06 5.592531e-06 -3.505277e-25)
(8.957293e-06 2.396872e-06 1.599736e-30)
(5.18349e-06 7.426987e-06 -4.355134e-25)
(6.04565e-06 5.625765e-06 -2.246332e-28)
(2.00521e-06 7.448817e-06 -4.025991e-28)
(3.109481e-06 6.630104e-06 -2.752779e-28)
(-1.93782e-07 6.514669e-06 -2.544702e-25)
(7.715406e-07 6.451362e-06 2.550157e-26)
(-1.542523e-06 5.219014e-06 -7.600711e-25)
(-8.409224e-07 5.606673e-06 -7.203989e-25)
(-2.297623e-06 3.855195e-06 1.218536e-25)
(-1.866164e-06 4.469319e-06 9.395507e-29)
(-2.467468e-06 3.250082e-06 -5.994542e-28)
(-2.704149e-06 2.549857e-06 -7.923824e-29)
(6.755833e-06 4.177051e-06 -5.490324e-30)
(6.712908e-06 1.866784e-06 0)
(4.320268e-06 5.961911e-06 2.918391e-25)
(4.909769e-06 4.467624e-06 -1.362981e-28)
(1.94559e-06 6.394921e-06 -4.385516e-25)
(2.795392e-06 5.542386e-06 3.919797e-30)
(9.092595e-08 5.946816e-06 2.693098e-25)
(9.046745e-07 5.690503e-06 3.638213e-29)
(-1.212679e-06 5.037023e-06 8.048473e-29)
(-5.478759e-07 5.191288e-06 2.836657e-25)
(-2.051303e-06 3.927244e-06 -5.47466e-25)
(-1.568822e-06 4.344173e-06 8.509022e-29)
(-2.248569e-06 3.322813e-06 1.494046e-28)
(-2.554501e-06 2.757548e-06 -7.846944e-26)
(5.196039e-06 3.200577e-06 -1.307362e-28)
(5.060628e-06 1.474778e-06 2.312893e-28)
(3.574987e-06 4.803105e-06 -1.34629e-28)
(3.923428e-06 3.580381e-06 -1.552732e-24)
(1.810216e-06 5.447033e-06 -2.745531e-24)
(2.416518e-06 4.623076e-06 -6.25629e-25)
(2.504713e-07 5.333669e-06 6.964223e-29)
(9.219296e-07 4.962127e-06 9.728106e-29)
(-9.400288e-07 4.734632e-06 1.64429e-25)
(-3.509942e-07 4.724548e-06 -5.298434e-29)
(-1.801005e-06 3.863537e-06 -1.033795e-29)
(-1.32849e-06 4.112102e-06 -1.92314e-29)
(-2.038919e-06 3.284811e-06 -7.19021e-30)
(-2.382345e-06 2.859467e-06 1.636534e-30)
(3.980702e-06 2.528551e-06 1.315274e-28)
(3.794945e-06 1.19762e-06 3.216375e-24)
(2.875013e-06 3.904833e-06 -1.726628e-28)
(3.059706e-06 2.918085e-06 5.056009e-29)
(1.565554e-06 4.619018e-06 -7.354596e-29)
(1.978563e-06 3.87196e-06 -2.397811e-29)
(2.913224e-07 4.716884e-06 -2.598538e-29)
(8.092413e-07 4.298434e-06 -8.207595e-30)
(-7.714821e-07 4.354672e-06 -3.470372e-29)
(-2.735173e-07 4.238695e-06 5.60164e-25)
(-1.602619e-06 3.69161e-06 1.117593e-25)
(-1.174656e-06 3.814886e-06 -1.652439e-29)
(-1.887198e-06 3.149112e-06 -7.239923e-30)
(-2.226411e-06 2.851116e-06 3.36068e-29)
(3.000025e-06 2.063115e-06 1.502662e-28)
(2.795718e-06 1.001987e-06 -2.211799e-24)
(2.233797e-06 3.223724e-06 1.992247e-28)
(2.30543e-06 2.427339e-06 1.550347e-24)
(1.25291e-06 3.927752e-06 2.163591e-25)
(1.520856e-06 3.267987e-06 3.517575e-25)
(2.215479e-07 4.142022e-06 -5.10917e-29)
(6.078946e-07 3.72101e-06 -5.599827e-29)
(-7.067439e-07 3.943748e-06 1.543049e-25)
(-3.017892e-07 3.767773e-06 4.184042e-25)
(-1.49107e-06 3.445759e-06 -7.618511e-30)
(-1.115897e-06 3.479406e-06 -7.616162e-30)
(-1.810082e-06 2.948523e-06 0)
(-2.124176e-06 2.750282e-06 -4.742436e-29)
(2.190453e-06 1.733678e-06 -1.388865e-29)
(1.986573e-06 8.613936e-07 -1.232204e-28)
(1.646786e-06 2.705347e-06 1.501397e-28)
(1.648973e-06 2.060141e-06 1.093973e-28)
(9.037261e-07 3.359311e-06 -6.133263e-30)
(1.069156e-06 2.786684e-06 9.495338e-29)
(6.875645e-08 3.625426e-06 -4.725104e-29)
(3.508735e-07 3.226568e-06 -1.028192e-25)
(-7.352419e-07 3.531743e-06 1.817212e-31)
(-4.129648e-07 3.328412e-06 -2.635262e-25)
(-1.463792e-06 3.155203e-06 0)
(-1.142757e-06 3.129486e-06 0)
(-1.809568e-06 2.697796e-06 0)
(-2.09739e-06 2.576474e-06 -5.595327e-29)
(1.510666e-06 1.494554e-06 0)
(1.316046e-06 7.578953e-07 0)
(1.114508e-06 2.308029e-06 5.423446e-29)
(1.075908e-06 1.781281e-06 -4.56696e-29)
(5.419461e-07 2.895263e-06 2.734435e-29)
(6.372774e-07 2.402463e-06 5.340888e-25)
(-1.400134e-07 3.171283e-06 -2.781914e-29)
(6.367598e-08 2.807076e-06 -1.411866e-29)
(-8.373993e-07 3.135929e-06 -1.586502e-31)
(-5.825347e-07 2.927714e-06 1.182617e-25)
(-1.510708e-06 2.839887e-06 0)
(-1.237081e-06 2.780034e-06 0)
(-1.873972e-06 2.412877e-06 -8.64642e-29)
(-2.137806e-06 2.345595e-06 5.121218e-29)
(9.305337e-07 1.316345e-06 -4.56506e-29)
(7.485501e-07 6.797679e-07 0)
(6.334676e-07 1.999279e-06 -1.610134e-29)
(5.719447e-07 1.565638e-06 -7.123309e-25)
(1.827554e-07 2.515683e-06 4.356192e-29)
(2.314046e-07 2.09326e-06 3.309928e-29)
(-3.822482e-07 2.775944e-06 -1.281724e-25)
(-2.35366e-07 2.451857e-06 2.028012e-25)
(-9.916391e-07 2.764632e-06 2.501324e-29)
(-7.885342e-07 2.566987e-06 5.893111e-29)
(-1.614131e-06 2.514186e-06 -8.643443e-29)
(-1.378568e-06 2.440911e-06 -6.017824e-29)
(-1.984538e-06 2.107574e-06 -1.336804e-25)
(-2.230291e-06 2.071327e-06 1.319111e-25)
(4.274621e-07 1.180065e-06 -1.741624e-29)
(2.584694e-07 6.194023e-07 -1.267735e-30)
(1.980603e-07 1.755646e-06 -5.455146e-26)
(1.243392e-07 1.395892e-06 -1.741909e-29)
(-1.650057e-07 2.203444e-06 -5.827233e-30)
(-1.471124e-07 1.842143e-06 6.451451e-30)
(-6.408769e-07 2.43309e-06 2.47888e-29)
(-5.34365e-07 2.15099e-06 -6.038783e-30)
(-1.178551e-06 2.422158e-06 -2.632573e-29)
(-1.014071e-06 2.245348e-06 -1.723791e-26)
(-1.754627e-06 2.189724e-06 -6.024915e-29)
(-1.548787e-06 2.119899e-06 -4.479018e-26)
(-2.121638e-06 1.797147e-06 1.352878e-26)
(-2.353643e-06 1.768982e-06 -7.009002e-32)
(-1.602649e-08 1.073544e-06 -1.26798e-30)
(-1.731845e-07 5.718025e-07 -4.877177e-25)
(-1.985068e-07 1.560673e-06 2.973808e-30)
(-2.783482e-07 1.260024e-06 0)
(-4.98387e-07 1.945304e-06 -9.748902e-26)
(-5.007257e-07 1.635904e-06 8.099909e-30)
(-9.061863e-07 2.136971e-06 9.986963e-29)
(-8.29136e-07 1.895553e-06 -8.051495e-29)
(-1.385008e-06 2.110572e-06 2.422421e-29)
(-1.249857e-06 1.963363e-06 -1.476938e-25)
(-1.916644e-06 1.878426e-06 2.5743e-29)
(-1.736436e-06 1.825527e-06 -7.138935e-29)
(-2.272337e-06 1.498988e-06 -8.856641e-30)
(-2.489343e-06 1.46025e-06 -2.716851e-29)
(-4.135978e-07 9.88738e-07 1.999947e-29)
(-5.610903e-07 5.33894e-07 1.999026e-29)
(-5.62118e-07 1.402227e-06 5.119721e-30)
(-6.454622e-07 1.150401e-06 4.182236e-29)
(-8.128563e-07 1.729321e-06 -1.79592e-25)
(-8.313429e-07 1.465807e-06 5.121027e-30)
(-1.161678e-06 1.882041e-06 1.571614e-24)
(-1.113761e-06 1.679608e-06 2.050499e-25)
(-1.598253e-06 1.836554e-06 1.812808e-29)
(-1.484044e-06 1.716865e-06 1.383022e-29)
(-2.088918e-06 1.593309e-06 -1.060051e-28)
(-1.930741e-06 1.563667e-06 -3.041457e-30)
(-2.429008e-06 1.227568e-06 -4.526853e-27)
(-2.628494e-06 1.166564e-06 -2.378281e-28)
(-7.771223e-07 9.209731e-07 4.180216e-29)
(-9.179375e-07 5.03902e-07 0)
(-9.009236e-07 1.273814e-06 4.183079e-29)
(-9.867184e-07 1.062791e-06 -1.926652e-25)
(-1.118766e-06 1.550526e-06 -6.456073e-29)
(-1.144167e-06 1.327992e-06 1.928065e-30)
(-1.423932e-06 1.665216e-06 1.884474e-25)
(-1.391352e-06 1.502035e-06 -6.258264e-29)
(-1.817958e-06 1.597368e-06 -7.420382e-30)
(-1.72302e-06 1.507492e-06 -4.393674e-30)
(-2.269972e-06 1.340799e-06 1.823321e-25)
(-2.132861e-06 1.336644e-06 -3.040136e-30)
(-2.597003e-06 9.907332e-07 -1.154515e-28)
(-2.773728e-06 9.081559e-07 -1.131069e-28)
(-1.117695e-06 8.678157e-07 1.187717e-28)
(-1.255973e-06 4.806692e-07 7.435177e-29)
(-1.221894e-06 1.172059e-06 1.207802e-28)
(-1.31253e-06 9.943004e-07 -8.487867e-26)
(-1.410985e-06 1.407001e-06 -8.077487e-26)
(-1.447726e-06 1.218847e-06 5.298871e-30)
(-1.682615e-06 1.487422e-06 2.0778e-30)
(-1.666689e-06 1.358135e-06 3.760626e-30)
(-2.0418e-06 1.394581e-06 0)
(-1.966944e-06 1.335907e-06 0)
(-2.46114e-06 1.124083e-06 0)
(-2.344363e-06 1.146142e-06 1.163561e-28)
(-2.779791e-06 7.914311e-07 -2.990853e-30)
(-2.932728e-06 6.872947e-07 -3.639519e-30)
(-1.446432e-06 8.272381e-07 7.082617e-26)
(-1.586774e-06 4.636516e-07 4.543295e-26)
(-1.534559e-06 1.093193e-06 -3.280792e-26)
(-1.632574e-06 9.434145e-07 1.709821e-28)
(-1.700093e-06 1.293494e-06 -7.869759e-26)
(-1.748446e-06 1.13617e-06 7.825253e-30)
(-1.943873e-06 1.344718e-06 1.742877e-30)
(-1.942741e-06 1.247155e-06 4.592498e-30)
(-2.273476e-06 1.227533e-06 1.177087e-28)
(-2.215111e-06 1.200878e-06 0)
(-2.665498e-06 9.44834e-07 -1.667004e-25)
(-2.567397e-06 9.925293e-07 7.494672e-26)
(-2.979707e-06 6.294855e-07 -5.418038e-30)
(-3.111421e-06 5.054979e-07 -1.214638e-25)
(-1.774612e-06 7.989336e-07 7.080891e-26)
(-1.923031e-06 4.529886e-07 2.019966e-28)
(-1.847966e-06 1.036946e-06 -3.239901e-26)
(-1.958019e-06 9.104802e-07 1.779704e-25)
(-1.992308e-06 1.210415e-06 -1.545089e-25)
(-2.055407e-06 1.08063e-06 1.180546e-28)
(-2.212612e-06 1.237627e-06 2.923574e-30)
(-2.226769e-06 1.169278e-06 2.876794e-30)
(-2.516815e-06 1.101395e-06 1.281053e-28)
(-2.47728e-06 1.102364e-06 -8.888363e-30)
(-2.885969e-06 8.018906e-07 1.240819e-28)
(-2.80306e-06 8.797712e-07 1.349933e-28)
(-3.199033e-06 5.066331e-07 4.101614e-30)
(-3.312129e-06 3.606311e-07 -1.123481e-25)
(-2.115137e-06 7.837028e-07 3.317618e-28)
(-2.279602e-06 4.49544e-07 4.042011e-25)
(-2.172715e-06 1.004632e-06 3.352172e-28)
(-2.301822e-06 8.97824e-07 3.577704e-25)
(-2.294564e-06 1.158856e-06 1.13684e-28)
(-2.378352e-06 1.055915e-06 2.842091e-25)
(-2.490122e-06 1.165622e-06 -8.807789e-30)
(-2.523517e-06 1.128792e-06 1.326763e-28)
(-2.761232e-06 1.015292e-06 1.3506e-24)
(-2.748528e-06 1.047139e-06 -9.767129e-30)
(-3.116289e-06 7.025144e-07 3.074715e-25)
(-3.048255e-06 8.090298e-07 1.580536e-28)
(-3.431175e-06 4.249528e-07 -1.603318e-28)
(-3.531206e-06 2.550278e-07 6.5282e-30)
(-2.483858e-06 7.838606e-07 -7.121383e-26)
(-2.675197e-06 4.549428e-07 1.301962e-28)
(-2.522311e-06 1.000704e-06 3.498943e-26)
(-2.680658e-06 9.101105e-07 5.980102e-25)
(-2.618629e-06 1.144866e-06 3.936868e-28)
(-2.730514e-06 1.068951e-06 5.002441e-25)
(-2.787912e-06 1.139173e-06 1.654053e-25)
(-2.845237e-06 1.135001e-06 3.910204e-25)
(-3.032772e-06 9.762579e-07 1.464673e-28)
(-3.037825e-06 1.043351e-06 -9.194516e-31)
(-3.367811e-06 6.457327e-07 -2.139628e-29)
(-3.31296e-06 7.86729e-07 1.323822e-25)
(-3.677058e-06 3.884628e-07 -1.821358e-26)
(-3.767156e-06 1.890619e-07 -9.773544e-26)
(-2.901267e-06 8.03636e-07 1.497561e-28)
(-3.134227e-06 4.714982e-07 -1.784623e-28)
(-2.914391e-06 1.032761e-06 3.782829e-26)
(-3.116698e-06 9.53896e-07 1.49778e-28)
(-2.977557e-06 1.179761e-06 4.533477e-28)
(-3.13134e-06 1.128962e-06 1.494138e-28)
(-3.110491e-06 1.167881e-06 3.044506e-28)
(-3.206047e-06 1.198984e-06 5.730593e-25)
(-3.322127e-06 9.919931e-07 1.594993e-28)
(-3.358005e-06 1.101075e-06 -1.728285e-28)
(-3.631035e-06 6.409731e-07 1.603373e-28)
(-3.59847e-06 8.286277e-07 1.628793e-28)
(-3.935524e-06 4.09489e-07 5.273e-26)
(-4.015532e-06 1.691803e-07 2.032547e-28)
(-3.393899e-06 8.483389e-07 -1.784945e-28)
(-3.688091e-06 5.024345e-07 -1.43589e-24)
(-3.372434e-06 1.110217e-06 0)
(-3.638128e-06 1.038044e-06 0)
(-3.390622e-06 1.275107e-06 -1.786267e-30)
(-3.604549e-06 1.24945e-06 0)
(-3.475564e-06 1.265096e-06 1.77073e-25)
(-3.622398e-06 1.336751e-06 -8.355311e-25)
(-3.644719e-06 1.079442e-06 -1.763792e-28)
(-3.718958e-06 1.238323e-06 -5.298313e-25)
(-3.915399e-06 7.079628e-07 1.864097e-28)
(-3.914476e-06 9.523643e-07 1.908529e-28)
(-4.20646e-06 5.096542e-07 1.852013e-28)
(-4.276461e-06 2.077371e-07 3.612864e-28)
(-3.995903e-06 9.253859e-07 -4.215573e-28)
(-4.377473e-06 5.521155e-07 -1.996346e-24)
(-3.926004e-06 1.246304e-06 0)
(-4.281323e-06 1.174824e-06 -1.364862e-30)
(-3.880984e-06 1.447609e-06 -1.925981e-28)
(-4.180131e-06 1.449557e-06 -2.350739e-28)
(-3.897053e-06 1.450714e-06 -1.915896e-25)
(-4.117641e-06 1.572534e-06 -1.9514e-28)
(-4.004035e-06 1.25665e-06 -1.983841e-28)
(-4.132725e-06 1.483034e-06 -8.640626e-25)
(-4.205912e-06 8.718816e-07 1.920497e-28)
(-4.255144e-06 1.191156e-06 6.081318e-25)
(-4.485726e-06 7.148649e-07 0)
(-4.53513e-06 3.325244e-07 -2.059016e-28)
(-4.751643e-06 1.044758e-06 -2.52722e-28)
(-5.254949e-06 6.260414e-07 -2.512077e-28)
(-4.61402e-06 1.459418e-06 6.035119e-26)
(-5.094103e-06 1.380061e-06 2.903015e-28)
(-4.481602e-06 1.7225e-06 -2.376275e-28)
(-4.898879e-06 1.753228e-06 -2.173417e-24)
(-4.401767e-06 1.756896e-06 2.095375e-25)
(-4.727094e-06 1.937104e-06 -2.512914e-30)
(-4.414506e-06 1.563993e-06 2.055917e-28)
(-4.627059e-06 1.871082e-06 1.289806e-24)
(-4.538898e-06 1.164298e-06 2.12191e-28)
(-4.640141e-06 1.572171e-06 2.10766e-28)
(-4.787184e-06 1.049848e-06 9.751929e-30)
(-4.811816e-06 5.651589e-07 -2.333743e-28)
(-5.717732e-06 1.218437e-06 2.914793e-28)
(-6.387107e-06 7.310187e-07 3.701505e-28)
(-5.487198e-06 1.772698e-06 1.588393e-29)
(-6.138579e-06 1.672407e-06 3.278752e-24)
(-5.235818e-06 2.132952e-06 -2.760748e-28)
(-5.816158e-06 2.188535e-06 -6.064377e-28)
(-5.023078e-06 2.220219e-06 2.370086e-28)
(-5.495145e-06 2.466974e-06 0)
(-4.901433e-06 2.036619e-06 4.364815e-25)
(-5.235844e-06 2.444729e-06 2.43488e-28)
(-4.907527e-06 1.609788e-06 3.893055e-25)
(-5.096371e-06 2.140286e-06 3.828086e-30)
(-5.111409e-06 1.565046e-06 1.767128e-29)
(-5.085155e-06 9.377464e-07 -9.756994e-30)
(-6.967457e-06 1.461397e-06 7.238959e-28)
(-7.857174e-06 8.741135e-07 4.651474e-24)
(-6.612318e-06 2.210666e-06 2.364086e-29)
(-7.489368e-06 2.072767e-06 7.880832e-28)
(-6.200176e-06 2.712416e-06 -3.306251e-28)
(-7.000619e-06 2.79014e-06 -3.958696e-24)
(-5.807211e-06 2.882155e-06 6.439231e-30)
(-6.479647e-06 3.206568e-06 0)
(-5.501995e-06 2.725709e-06 -5.021033e-25)
(-6.007295e-06 3.256233e-06 6.440151e-30)
(-5.340915e-06 2.270136e-06 4.535811e-25)
(-5.653226e-06 2.957579e-06 2.819881e-28)
(-5.482345e-06 2.330377e-06 -2.877429e-28)
(-5.366184e-06 1.513227e-06 -2.16293e-28)
(-8.588713e-06 1.786308e-06 8.913055e-28)
(-9.763363e-06 1.061824e-06 1.02766e-27)
(-8.071429e-06 2.804683e-06 3.247824e-29)
(-9.242812e-06 2.602283e-06 5.685101e-24)
(-7.449607e-06 3.506356e-06 -4.021462e-28)
(-8.539475e-06 3.594205e-06 -4.018312e-28)
(-6.81762e-06 3.802949e-06 0)
(-7.759978e-06 4.206503e-06 -4.218387e-28)
(-6.260586e-06 3.694793e-06 2.814696e-28)
(-7.002219e-06 4.371657e-06 1.722699e-29)
(-5.864739e-06 3.214404e-06 -4.407825e-30)
(-6.355069e-06 4.106487e-06 2.929692e-24)
(-5.904725e-06 3.456738e-06 -2.28852e-24)
(-5.633227e-06 2.385201e-06 -2.663824e-24)
(-1.06858e-05 2.206968e-06 -2.353883e-25)
(-1.221895e-05 1.304849e-06 7.174093e-24)
(-9.963647e-06 3.581354e-06 5.425614e-28)
(-1.150978e-05 3.273156e-06 5.439119e-28)
(-9.077867e-06 4.555529e-06 -4.214936e-28)
(-1.053867e-05 4.631704e-06 6.284725e-28)
(-8.140731e-06 5.039209e-06 -7.785232e-25)
(-9.438485e-06 5.517163e-06 -6.197391e-24)
(-7.253462e-06 5.028076e-06 6.550577e-28)
(-8.319505e-06 5.86026e-06 4.840485e-28)
(-6.51625e-06 4.555244e-06 6.028539e-25)
(-7.291648e-06 5.670646e-06 4.294809e-24)
(-6.459978e-06 4.993612e-06 2.955072e-24)
(-5.997762e-06 3.683115e-06 8.424032e-25)
(-1.338071e-05 2.73062e-06 7.171724e-28)
(-1.536855e-05 1.595329e-06 7.10643e-28)
(-1.240937e-05 4.561954e-06 6.30039e-28)
(-1.442627e-05 4.110931e-06 0)
(-1.119873e-05 5.899854e-06 -4.569115e-25)
(-1.312575e-05 5.928361e-06 8.453191e-24)
(-9.886607e-06 6.649549e-06 -6.619457e-29)
(-1.164147e-05 7.180523e-06 -5.32114e-28)
(-8.582914e-06 6.798949e-06 1.235958e-27)
(-1.008186e-05 7.785839e-06 7.45826e-24)
(-7.40496e-06 6.364763e-06 1.076256e-27)
(-8.567049e-06 7.7398e-06 6.343339e-24)
(-7.224732e-06 7.066824e-06 -5.314515e-29)
(-6.477982e-06 5.401238e-06 7.699199e-28)
(-1.680581e-05 3.367351e-06 0)
(-1.930799e-05 1.937855e-06 1.128984e-27)
(-1.552926e-05 5.76003e-06 1.552121e-27)
(-1.808673e-05 5.126615e-06 -1.046827e-27)
(-1.394996e-05 7.565367e-06 1.546303e-27)
(-1.643924e-05 7.468361e-06 1.053366e-23)
(-1.219582e-05 8.680846e-06 1.161606e-27)
(-1.451886e-05 9.210903e-06 0)
(-1.038532e-05 9.085625e-06 1.633279e-27)
(-1.244885e-05 1.020047e-05 1.003208e-23)
(-8.642125e-06 8.769966e-06 1.137403e-28)
(-1.034024e-05 1.041206e-05 4.704491e-28)
(-8.329407e-06 9.839337e-06 -7.400919e-24)
(-7.151026e-06 7.753165e-06 -3.634962e-28)
(-2.105549e-05 4.122631e-06 -6.434785e-25)
(-2.417138e-05 2.326895e-06 1.063902e-23)
(-1.947696e-05 7.156323e-06 -2.013235e-27)
(-2.267542e-05 6.259062e-06 -1.085316e-23)
(-1.750108e-05 9.531273e-06 -9.592969e-28)
(-2.067005e-05 9.294644e-06 -2.270343e-23)
(-1.524823e-05 1.115336e-05 7.376528e-28)
(-1.827051e-05 1.156527e-05 -2.227381e-27)
(-1.284875e-05 1.195194e-05 7.374786e-28)
(-1.562542e-05 1.311754e-05 1.611139e-27)
(-1.041223e-05 1.18971e-05 -3.63085e-28)
(-1.283874e-05 1.376263e-05 -7.012052e-29)
(-1.000362e-05 1.345361e-05 -3.014586e-28)
(-8.100562e-06 1.095272e-05 -2.416699e-24)
(-2.627167e-05 4.933944e-06 7.000417e-29)
(-3.000139e-05 2.734631e-06 1.393886e-27)
(-2.438369e-05 8.715082e-06 -4.989431e-27)
(-2.821617e-05 7.432743e-06 -1.342476e-27)
(-2.202851e-05 1.177357e-05 -5.936525e-27)
(-2.593532e-05 1.124441e-05 -1.237327e-23)
(-1.926356e-05 1.403037e-05 1.446174e-24)
(-2.3144e-05 1.424393e-05 -2.825677e-23)
(-1.621973e-05 1.541844e-05 8.036588e-28)
(-1.987263e-05 1.649134e-05 1.692205e-23)
(-1.298699e-05 1.583883e-05 1.609022e-24)
(-1.636259e-05 1.781409e-05 -2.626341e-28)
(-1.255639e-05 1.804819e-05 -3.062017e-28)
(-9.670636e-06 1.515462e-05 -3.370853e-24)
(-3.244362e-05 5.769549e-06 3.89518e-25)
(-3.680059e-05 3.129879e-06 5.923203e-31)
(-3.029276e-05 1.029737e-05 -1.624302e-27)
(-3.472087e-05 8.596785e-06 1.819239e-30)
(-2.766618e-05 1.412244e-05 1.388875e-24)
(-3.219707e-05 1.314694e-05 -3.469433e-27)
(-2.443374e-05 1.719236e-05 -2.557362e-24)
(-2.912606e-05 1.707589e-05 -3.664441e-27)
(-2.081209e-05 1.941996e-05 1.216872e-27)
(-2.547197e-05 2.008129e-05 2.498845e-27)
(-1.673687e-05 2.063812e-05 3.763968e-24)
(-2.130547e-05 2.245618e-05 -1.294515e-27)
(-1.647835e-05 2.369468e-05 -3.672988e-28)
(-1.222771e-05 2.059066e-05 4.416289e-24)
(-3.953933e-05 6.537535e-06 -4.060513e-25)
(-4.445347e-05 3.451874e-06 4.691426e-30)
(-3.718375e-05 1.180307e-05 -1.836165e-27)
(-4.214014e-05 9.574068e-06 1.284942e-29)
(-3.438983e-05 1.643956e-05 -9.958416e-25)
(-3.956356e-05 1.481844e-05 -1.114254e-23)
(-3.104433e-05 2.039939e-05 -9.106278e-24)
(-3.655553e-05 1.962347e-05 -1.547729e-23)
(-2.703174e-05 2.368625e-05 -3.089071e-24)
(-3.284253e-05 2.381369e-05 -2.27375e-27)
(-2.219402e-05 2.619559e-05 -1.10132e-27)
(-2.822338e-05 2.731212e-05 -3.093243e-23)
(-2.245854e-05 3.026191e-05 0)
(-1.640544e-05 2.739183e-05 6.084666e-29)
(-4.737853e-05 7.093442e-06 0)
(-5.26685e-05 3.626357e-06 1.068227e-29)
(-4.495296e-05 1.292074e-05 -2.363442e-27)
(-5.020788e-05 1.014193e-05 -2.910811e-29)
(-4.231108e-05 1.822938e-05 -4.839911e-27)
(-4.777477e-05 1.587449e-05 -2.457399e-27)
(-3.918738e-05 2.321946e-05 1.001069e-24)
(-4.516433e-05 2.134493e-05 -2.468982e-27)
(-3.528404e-05 2.785309e-05 7.274608e-24)
(-4.201954e-05 2.680066e-05 -1.880493e-23)
(-3.002523e-05 3.212392e-05 -2.952984e-27)
(-3.773229e-05 3.202051e-05 -2.612982e-27)
(-3.138084e-05 3.725124e-05 8.806891e-28)
(-2.313001e-05 3.542924e-05 1.041046e-27)
(-5.559403e-05 7.285323e-06 -7.850049e-25)
(-6.096788e-05 3.572008e-06 3.356852e-27)
(-5.326552e-05 1.337642e-05 6.673776e-25)
(-5.84907e-05 1.006501e-05 -5.836743e-29)
(-5.105714e-05 1.914361e-05 -9.338487e-29)
(-5.646893e-05 1.594511e-05 3.244078e-27)
(-4.865159e-05 2.490054e-05 -5.298259e-27)
(-5.462954e-05 2.185713e-05 0)
(-4.557338e-05 3.093292e-05 -5.131513e-27)
(-5.253999e-05 2.821898e-05 -1.54463e-23)
(-4.073027e-05 3.751792e-05 -4.595581e-25)
(-4.942837e-05 3.553483e-05 -3.026966e-28)
(-4.415872e-05 4.328087e-05 5.579895e-27)
(-3.358144e-05 4.406843e-05 -4.38405e-24)
(-6.36202e-05 6.940357e-06 7.005542e-25)
(-6.866333e-05 3.208807e-06 -1.661303e-23)
(-6.159645e-05 1.283202e-05 3.303526e-27)
(-6.633178e-05 9.097334e-06 3.682608e-27)
(-6.016895e-05 1.865723e-05 3.338435e-27)
(-6.500536e-05 1.459905e-05 -1.128549e-23)
(-5.900301e-05 2.492902e-05 -3.631509e-27)
(-6.442253e-05 2.04612e-05 2.263584e-28)
(-5.741326e-05 3.223851e-05 -3.543488e-24)
(-6.422701e-05 2.729806e-05 -3.019654e-27)
(-5.480705e-05 4.096046e-05 2.512854e-23)
(-6.360309e-05 3.591611e-05 -8.217786e-24)
(-6.138749e-05 4.67731e-05 6.953751e-27)
(-4.903131e-05 5.167024e-05 -2.372259e-24)
(-7.068544e-05 5.902601e-06 5.684343e-25)
(-7.488572e-05 2.491037e-06 3.718862e-27)
(-6.916778e-05 1.097906e-05 7.520519e-27)
(-7.286312e-05 7.052475e-06 -2.596641e-23)
(-6.88395e-05 1.623226e-05 4.037808e-27)
(-7.243478e-05 1.150262e-05 -3.821118e-28)
(-6.944547e-05 2.230904e-05 3.467989e-24)
(-7.342974e-05 1.659414e-05 1.384366e-28)
(-7.046089e-05 2.997593e-05 5.673118e-24)
(-7.559079e-05 2.307166e-05 5.513315e-27)
(-7.111668e-05 4.018236e-05 1.728446e-23)
(-7.830628e-05 3.19536e-05 -2.493483e-27)
(-8.073286e-05 4.51206e-05 2.21902e-27)
(-6.935664e-05 5.515276e-05 2.255613e-23)
(-7.58757e-05 4.100016e-06 -3.973976e-27)
(-7.871856e-05 1.410333e-06 -4.139077e-27)
(-7.501628e-05 7.613444e-06 2.908977e-25)
(-7.706342e-05 3.890417e-06 7.769489e-23)
(-7.598662e-05 1.157544e-05 -1.149328e-24)
(-7.767629e-05 6.516669e-06 3.812627e-23)
(-7.867048e-05 1.662685e-05 4.805421e-27)
(-8.039811e-05 9.991072e-06 -9.599825e-27)
(-8.277437e-05 2.374518e-05 8.157651e-24)
(-8.52372e-05 1.50947e-05 -4.023702e-23)
(-8.744748e-05 3.427874e-05 3.629467e-28)
(-9.198826e-05 2.285101e-05 -5.069513e-27)
(-0.0001002912 3.482968e-05 6.444076e-27)
(-9.375986e-05 5.074271e-05 -1.918815e-28)
(-7.81655e-05 1.636272e-06 -1.249097e-26)
(-7.913137e-05 4.422924e-10 4.866171e-23)
(-7.80036e-05 2.758498e-06 2.16363e-24)
(-7.784906e-05 -2.449716e-07 -8.342769e-27)
(-8.04204e-05 4.549866e-06 -1.393223e-26)
(-7.945358e-05 -3.856612e-07 -4.386487e-27)
(-8.522619e-05 7.637212e-06 -4.20405e-27)
(-8.399872e-05 7.490569e-07 1.047517e-22)
(-9.236409e-05 1.284643e-05 7.61713e-24)
(-9.131797e-05 3.587038e-06 -5.581551e-27)
(-0.0001031368 2.120306e-05 8.294431e-28)
(-0.0001011408 7.488511e-06 -1.46424e-23)
(-0.0001188442 7.807217e-06 3.498505e-22)
(-0.0001240824 3.615169e-05 2.037894e-26)
(-7.665909e-05 -1.437352e-06 -3.272191e-25)
(-7.530162e-05 -1.657403e-06 -3.015226e-28)
(-7.702929e-05 -3.318001e-06 -3.633276e-30)
(-7.436533e-05 -5.141805e-06 3.369203e-29)
(-8.071191e-05 -4.676676e-06 -3.409209e-29)
(-7.664187e-05 -8.658781e-06 6.321057e-29)
(-8.773034e-05 -4.330144e-06 -1.105525e-26)
(-8.279086e-05 -1.109983e-05 -1.46347e-22)
(-9.916878e-05 -1.408536e-06 -1.718134e-26)
(-9.261401e-05 -1.238489e-05 -1.30975e-23)
(-0.0001248087 2.554371e-06 1.039753e-22)
(-0.0001103828 -2.359698e-05 -2.066713e-26)
(-0.0001599831 -5.914725e-05 9.214647e-22)
(-0.0001820985 7.421339e-06 5.994987e-22)
(-7.05842e-05 -4.913857e-06 3.784485e-27)
(-6.665075e-05 -3.446329e-06 -5.691686e-23)
(-7.137226e-05 -1.026774e-05 -5.534142e-26)
(-6.602535e-05 -1.043269e-05 3.719637e-29)
(-7.560812e-05 -1.539719e-05 8.551334e-27)
(-6.863047e-05 -1.741956e-05 2.868899e-28)
(-8.609071e-05 -1.882116e-05 -3.757421e-23)
(-7.507901e-05 -2.595699e-05 8.855628e-27)
(-0.000112717 -2.079172e-05 2.870178e-22)
(-9.183752e-05 -4.464426e-05 -5.118454e-27)
(-0.0001738698 -3.107359e-05 4.857101e-28)
(-0.0001423667 -9.314692e-05 -1.742294e-21)
(-0.000244113 -0.0001744206 5.006734e-26)
(-0.000274044 -4.508458e-05 1.774179e-21)
(-5.953899e-05 -8.506755e-06 3.191685e-27)
(-5.299853e-05 -5.21247e-06 3.19212e-27)
(-6.038514e-05 -1.740495e-05 2.239415e-28)
(-5.25853e-05 -1.538491e-05 1.792198e-28)
(-6.521219e-05 -2.616607e-05 1.782956e-23)
(-5.479214e-05 -2.633336e-05 3.467183e-27)
(-8.517359e-05 -3.806471e-05 7.062231e-27)
(-6.193612e-05 -5.093201e-05 4.454118e-27)
(-0.0001443367 -5.937578e-05 3.696192e-21)
(-0.0001045278 -0.0001157266 1.494132e-26)
(-0.0002520653 -9.306965e-05 5.113724e-26)
(-0.0002014695 -0.0002147915 2.007139e-21)
(-0.0003256971 -0.0003131053 1.40766e-21)
(-0.0003521438 -9.903986e-05 6.409011e-26)
(-4.355203e-05 -1.181094e-05 1.788648e-28)
(-3.450485e-05 -6.636499e-06 0)
(-4.442746e-05 -2.351991e-05 6.864976e-24)
(-3.422656e-05 -1.983947e-05 1.803712e-28)
(-5.435581e-05 -3.659136e-05 7.332944e-27)
(-3.608684e-05 -4.032983e-05 5.538294e-23)
(-9.851428e-05 -7.021061e-05 1.214964e-26)
(-5.799362e-05 -0.0001016639 5.492709e-22)
(-0.0001916827 -0.0001283215 3.846104e-26)
(-0.0001389313 -0.0002251559 7.932495e-22)
(-0.000297357 -0.0001673319 6.898585e-26)
(-0.0002543762 -0.0003635551 3.567989e-26)
(-0.0002779338 -0.0004753825 3.806452e-26)
(-0.000374822 -0.0001053376 3.458203e-26)
(-2.260996e-05 -1.446315e-05 6.719715e-32)
(-1.187349e-05 -7.027403e-06 1.426749e-28)
(-2.521328e-05 -2.898433e-05 4.227126e-27)
(-9.807631e-06 -2.509175e-05 -1.187424e-28)
(-5.119429e-05 -5.667912e-05 1.47207e-21)
(-1.787175e-05 -7.314063e-05 4.161922e-27)
(-0.0001251922 -0.0001253339 1.468758e-26)
(-6.94603e-05 -0.0001881062 2.275012e-26)
(-0.0002254182 -0.0001994995 -3.382348e-21)
(-0.0001626952 -0.0003424893 1.214562e-26)
(-0.0003032327 -0.0001917212 5.450269e-27)
(-0.0002146226 -0.0005057857 2.602011e-21)
(-0.0001898865 -0.0006781129 -2.012129e-26)
(-0.0002994516 -0.0001086812 2.494677e-26)
(1.270928e-06 -1.423765e-05 8.57205e-24)
(1.2044e-05 -6.338213e-06 1.139033e-23)
(-8.12757e-06 -3.722696e-05 -1.177679e-28)
(1.609108e-05 -3.684937e-05 -1.9302e-22)
(-5.579426e-05 -9.825291e-05 1.129944e-26)
(-8.363452e-06 -0.0001297541 -1.879929e-27)
(-0.000136605 -0.0001898449 5.150789e-21)
(-8.003529e-05 -0.0002886791 1.501157e-26)
(-0.0002173447 -0.0002188136 -5.691173e-21)
(-0.0001170113 -0.0004520513 1.722081e-26)
(-0.0002567744 -0.0001613327 -1.084816e-20)
(-0.0001221179 -0.000647 5.182327e-21)
(-0.0001019629 -0.0008584114 -4.738803e-27)
(-0.0002836785 -0.0001285981 -3.1405e-20)
(2.257675e-05 -1.244736e-05 5.702064e-28)
(3.518738e-05 -7.542711e-06 -3.206223e-27)
(1.199157e-06 -5.470838e-05 -2.174223e-28)
(3.349075e-05 -6.21264e-05 -4.004897e-22)
(-5.743865e-05 -0.0001461334 -1.075279e-21)
(-4.900938e-06 -0.0001970461 3.718637e-27)
(-0.0001261043 -0.0002197615 4.260884e-21)
(-5.111283e-05 -0.0003703704 7.42255e-27)
(-0.000157863 -0.0001887826 1.156187e-26)
(-5.294238e-05 -0.0005686626 1.519363e-26)
(-0.0001803207 -0.0001491478 1.862355e-26)
(-4.037647e-05 -0.0007950566 9.293807e-27)
(1.609813e-05 -0.001029877 4.918796e-20)
(-0.0002600014 -0.0001751967 6.972366e-28)
(3.611293e-05 -1.482054e-05 -4.970628e-28)
(5.3567e-05 -1.574967e-05 1.220521e-22)
(2.379825e-06 -8.104276e-05 3.846534e-22)
(3.872149e-05 -0.0001009587 2.646011e-27)
(-5.104187e-05 -0.000171254 1.548051e-21)
(1.50137e-06 -0.0002572298 1.315911e-21)
(-9.316373e-05 -0.0001861323 1.051792e-26)
(-7.15893e-06 -0.0004424201 1.016982e-26)
(-0.0001236623 -0.000147292 1.243956e-20)
(1.306572e-05 -0.0006678655 1.255708e-26)
(-0.0001778803 -0.000169337 1.851347e-26)
(4.467991e-06 -0.0009375937 2.135016e-26)
(-4.123491e-05 -0.001275948 1.086449e-20)
(-0.0002273256 -0.0002293344 1.28626e-26)
(4.323128e-05 -2.803255e-05 1.162557e-22)
(6.829994e-05 -3.258768e-05 -2.819805e-27)
(1.08197e-06 -0.0001104257 4.887718e-22)
(4.303767e-05 -0.0001471181 1.044407e-27)
(-4.181645e-05 -0.0001669373 2.257286e-21)
(1.612697e-05 -0.0003083568 -1.866295e-21)
(-6.827656e-05 -0.0001395399 4.816406e-21)
(3.172533e-05 -0.0005119864 6.472196e-27)
(-0.0001079347 -0.0001311249 1.54338e-20)
(5.050054e-05 -0.000765225 6.678218e-21)
(-0.0001896339 -0.0002010512 2.098109e-20)
(2.608598e-05 -0.00108818 -9.291541e-21)