/*--------------------------------*- C++ -*----------------------------------*\
| =========                 |                                                 |
| \\      /  F ield         | OpenFOAM: The Open Source CFD Toolbox           |
|  \\    /   O peration     | Version:  2206                                  |
|   \\  /    A nd           | Website:  www.openfoam.com                      |
|    \\/     M anipulation  |                                                 |
\*---------------------------------------------------------------------------*/
FoamFile
{
    version     2.0;
    format      ascii;
    arch        "LSB;label=32;scalar=64";
    class       surfaceVectorField;
    location    "1.4";
    object      Ufb_0;
}
// * * * * * * * * * * * * * * * * * * * * * * * * * * * * * * * * * * * * * //

dimensions      [0 1 -1 0 0 0 0];

internalField   nonuniform List<vector> 
26037
(
(-1.694728e-06 3.923112e-05 4.839033e-22)
(1.104372e-05 7.735539e-06 -1.25401e-27)
(-1.532746e-06 2.407112e-05 -1.216977e-22)
(8.136198e-06 1.838113e-05 1.952164e-24)
(-1.648949e-06 1.27354e-05 9.38349e-28)
(1.519685e-06 1.633253e-05 9.404798e-28)
(-1.746027e-06 7.288912e-06 1.976698e-28)
(-1.2016e-06 1.021756e-05 0)
(-1.827655e-06 4.480328e-06 5.197231e-24)
(-1.853337e-06 6.18548e-06 1.980051e-28)
(-1.920867e-06 2.648347e-06 2.265733e-28)
(-2.056241e-06 3.761223e-06 -3.886256e-27)
(-2.162763e-06 2.061904e-06 9.169187e-29)
(-2.022065e-06 1.23375e-06 1.465954e-24)
(7.543322e-06 2.139424e-05 -6.609552e-30)
(2.958758e-05 2.81982e-06 8.251115e-28)
(3.819919e-06 1.773458e-05 -6.673079e-30)
(1.225587e-05 1.456324e-05 -4.777466e-28)
(2.446248e-07 1.157296e-05 0)
(3.59034e-06 1.288319e-05 -2.727514e-28)
(-1.491738e-06 7.31447e-06 3.590865e-31)
(-2.744394e-07 9.127543e-06 -4.493781e-28)
(-2.055061e-06 4.605586e-06 6.791887e-31)
(-1.706378e-06 6.079136e-06 2.267483e-26)
(-2.263564e-06 2.737515e-06 1.093506e-30)
(-2.237735e-06 3.869904e-06 3.202117e-31)
(-2.439773e-06 2.194262e-06 -6.893572e-27)
(-2.362228e-06 1.287604e-06 5.466866e-29)
(1.791815e-05 1.215194e-05 3.516125e-28)
(1.845957e-05 3.566856e-06 4.279552e-23)
(7.331517e-06 1.227721e-05 -7.507207e-28)
(9.703206e-06 9.490556e-06 -9.749682e-24)
(1.610086e-06 9.893405e-06 3.141464e-24)
(3.856911e-06 9.610775e-06 -6.605252e-28)
(-9.057494e-07 7.084621e-06 -1.589958e-24)
(3.49087e-07 7.944379e-06 -5.425052e-28)
(-1.963677e-06 4.79041e-06 -1.707929e-28)
(-1.38586e-06 5.873755e-06 -3.963954e-26)
(-2.392059e-06 2.991377e-06 4.941035e-34)
(-2.179311e-06 4.00853e-06 0)
(-2.525577e-06 2.423249e-06 5.298702e-27)
(-2.564856e-06 1.519017e-06 -5.441655e-29)
(1.27448e-05 7.629388e-06 -1.807084e-28)
(1.242654e-05 2.975066e-06 4.808621e-28)
(6.471999e-06 9.170783e-06 -1.049336e-27)
(7.657733e-06 6.992944e-06 -1.069553e-23)
(2.120487e-06 8.390968e-06 2.996582e-25)
(3.606563e-06 7.724253e-06 -3.679984e-24)
(-3.868947e-07 6.699391e-06 -9.018982e-29)
(7.572025e-07 6.988644e-06 1.384126e-24)
(-1.669779e-06 4.892199e-06 1.971022e-31)
(-9.808577e-07 5.608771e-06 1.62262e-28)
(-2.302992e-06 3.257821e-06 -7.017647e-31)
(-1.93832e-06 4.09139e-06 1.247957e-33)
(-2.432027e-06 2.648734e-06 -7.417841e-29)
(-2.597391e-06 1.819002e-06 5.062653e-29)
(9.150984e-06 5.487158e-06 -3.477028e-25)
(9.215053e-06 2.34633e-06 1.574922e-30)
(5.424524e-06 7.243961e-06 -4.321317e-25)
(6.323554e-06 5.484314e-06 -2.299394e-28)
(2.257424e-06 7.199375e-06 -4.2567e-28)
(3.398762e-06 6.413374e-06 -2.866609e-28)
(5.913264e-08 6.205924e-06 -2.513575e-25)
(1.06205e-06 6.167978e-06 2.428016e-26)
(-1.296131e-06 4.854918e-06 -7.385112e-25)
(-5.576977e-07 5.263405e-06 -7.101642e-25)
(-2.063227e-06 3.439672e-06 1.040191e-25)
(-1.595441e-06 4.070336e-06 8.848705e-29)
(-2.214481e-06 2.799888e-06 -1.079676e-27)
(-2.487106e-06 2.088429e-06 -7.347651e-29)
(7.066969e-06 4.076312e-06 -5.364086e-30)
(7.064431e-06 1.817212e-06 0)
(4.642997e-06 5.777948e-06 2.892682e-25)
(5.271824e-06 4.325464e-06 -1.462565e-28)
(2.272198e-06 6.137911e-06 -4.349208e-25)
(3.162063e-06 5.318962e-06 -9.258149e-30)
(4.125286e-07 5.62425e-06 2.664662e-25)
(1.267611e-06 5.394338e-06 2.464143e-29)
(-9.038671e-07 4.654454e-06 7.559883e-29)
(-1.968392e-07 4.82868e-06 2.702796e-25)
(-1.76076e-06 3.489754e-06 -5.246556e-25)
(-1.236907e-06 3.921933e-06 8.02678e-29)
(-1.940711e-06 2.846001e-06 1.367661e-28)
(-2.286878e-06 2.270032e-06 -5.712112e-26)
(5.598197e-06 3.101395e-06 -1.408157e-28)
(5.507229e-06 1.424988e-06 2.566535e-28)
(3.98122e-06 4.615138e-06 -1.576917e-28)
(4.374057e-06 3.434954e-06 -1.574195e-24)
(2.214463e-06 5.179026e-06 -2.718952e-24)
(2.865895e-06 4.390002e-06 -6.472175e-25)
(6.444867e-07 4.992617e-06 5.693917e-29)
(1.362327e-06 4.648983e-06 9.321795e-29)
(-5.644342e-07 4.327794e-06 1.616052e-25)
(7.164685e-08 4.337957e-06 -8.397085e-29)
(-1.450337e-06 3.397332e-06 -9.605729e-30)
(-9.305597e-07 3.659529e-06 -1.772345e-29)
(-1.672244e-06 2.773775e-06 -6.321526e-30)
(-2.061681e-06 2.339776e-06 1.40044e-30)
(4.47756e-06 2.427707e-06 1.44375e-28)
(4.340844e-06 1.146189e-06 3.281184e-24)
(3.370662e-06 3.709533e-06 -1.974446e-28)
(3.605104e-06 2.766223e-06 6.824449e-29)
(2.053425e-06 4.336393e-06 -8.592781e-29)
(2.517392e-06 3.625635e-06 -2.110108e-29)
(7.62849e-07 4.353013e-06 -4.850958e-29)
(1.333394e-06 3.963741e-06 -7.636509e-30)
(-3.242155e-07 3.917816e-06 -5.62828e-29)
(2.267979e-07 3.822747e-06 4.910531e-25)
(-1.186689e-06 3.189329e-06 1.085913e-25)
(-7.056113e-07 3.325921e-06 -1.49127e-29)
(-1.456572e-06 2.5953e-06 -6.365234e-30)
(-1.848491e-06 2.291219e-06 2.690128e-29)
(3.597659e-06 1.957676e-06 1.804651e-28)
(3.447569e-06 9.475895e-07 -2.301439e-24)
(2.825775e-06 3.016986e-06 2.445651e-28)
(2.953473e-06 2.265737e-06 1.642237e-24)
(1.831658e-06 3.625616e-06 2.133589e-25)
(2.157475e-06 3.003843e-06 3.983074e-25)
(7.777203e-07 3.750061e-06 -1.033624e-28)
(1.223972e-06 3.359654e-06 -8.83983e-29)
(-1.814596e-07 3.470847e-06 1.509991e-25)
(2.837267e-07 3.316425e-06 3.333756e-25)
(-1.004464e-06 2.900262e-06 -6.783396e-30)
(-5.690395e-07 2.946969e-06 -6.781304e-30)
(-1.309806e-06 2.344045e-06 0)
(-1.683579e-06 2.140992e-06 -3.755832e-29)
(2.896989e-06 1.621097e-06 -1.455697e-29)
(2.753189e-06 8.028258e-07 -1.596447e-28)
(2.343838e-06 2.483184e-06 2.033052e-28)
(2.409086e-06 1.885603e-06 1.451732e-28)
(1.58224e-06 3.032667e-06 -2.117205e-29)
(1.813297e-06 2.500102e-06 1.528772e-28)
(7.18116e-07 3.199519e-06 -7.999616e-29)
(1.068419e-06 2.832782e-06 -2.092882e-25)
(-1.241224e-07 3.015945e-06 1.607438e-31)
(2.667049e-07 2.834807e-06 -1.597306e-25)
(-8.996044e-07 2.558321e-06 0)
(-5.097024e-07 2.545559e-06 0)
(-1.232546e-06 2.033398e-06 0)
(-1.588501e-06 1.908547e-06 -4.222417e-29)
(2.336157e-06 1.372501e-06 0)
(2.208304e-06 6.940144e-07 0)
(1.927009e-06 2.066312e-06 9.47511e-29)
(1.959299e-06 1.590598e-06 -9.420809e-29)
(1.330619e-06 2.538592e-06 3.034239e-29)
(1.500226e-06 2.088538e-06 6.653664e-25)
(6.125926e-07 2.704577e-06 -6.595501e-29)
(8.938051e-07 2.374534e-06 -8.833014e-30)
(-1.311254e-07 2.568931e-06 -1.348071e-31)
(2.019831e-07 2.384132e-06 6.987456e-29)
(-8.606021e-07 2.182514e-06 0)
(-5.083629e-07 2.135522e-06 0)
(-1.211577e-06 1.678178e-06 -4.929349e-29)
(-1.553387e-06 1.608656e-06 3.802182e-29)
(1.887015e-06 1.182505e-06 -9.416891e-29)
(1.779482e-06 6.09435e-07 0)
(1.573556e-06 1.733789e-06 -1.772261e-29)
(1.591695e-06 1.355499e-06 -8.68599e-25)
(1.093647e-06 2.123083e-06 1.343258e-28)
(1.226218e-06 1.746791e-06 7.95008e-29)
(4.852619e-07 2.26094e-06 -1.247897e-25)
(7.201881e-07 1.973676e-06 3.439323e-25)
(-1.791988e-07 2.13778e-06 -1.776729e-29)
(1.128756e-07 1.964927e-06 -3.200019e-29)
(-8.679954e-07 1.78572e-06 -4.927652e-29)
(-5.42541e-07 1.725746e-06 -1.590398e-29)
(-1.226309e-06 1.290954e-06 -8.637241e-27)
(-1.561388e-06 1.253181e-06 1.212234e-25)
(1.529057e-06 1.032193e-06 -7.369741e-29)
(1.443264e-06 5.414441e-07 -6.673697e-29)
(1.279824e-06 1.461988e-06 -5.26826e-26)
(1.295666e-06 1.162832e-06 -7.370947e-29)
(8.819325e-07 1.768594e-06 4.417384e-29)
(9.946056e-07 1.457527e-06 5.216704e-30)
(3.549345e-07 1.861984e-06 2.708058e-29)
(5.610188e-07 1.619721e-06 4.42628e-29)
(-2.471695e-07 1.725518e-06 -3.012503e-29)
(1.85577e-08 1.575682e-06 -1.828318e-25)
(-9.004837e-07 1.378973e-06 -1.593672e-29)
(-5.9237e-07 1.323141e-06 1.065669e-25)
(-1.254811e-06 8.857155e-07 -1.207247e-25)
(-1.589432e-06 8.563553e-07 -3.253103e-32)
(1.24707e-06 9.091309e-07 -6.674985e-29)
(1.183161e-06 4.849749e-07 -7.004072e-25)
(1.041139e-06 1.2341e-06 2.325426e-30)
(1.062037e-06 1.000312e-06 0)
(7.003478e-07 1.461451e-06 -9.421887e-26)
(8.050218e-07 1.206977e-06 6.008193e-30)
(2.333993e-07 1.501045e-06 -1.215315e-29)
(4.227499e-07 1.3026e-06 -8.020001e-31)
(-3.19879e-07 1.333667e-06 -3.519092e-29)
(-6.979247e-08 1.217051e-06 -3.648146e-25)
(-9.407704e-07 9.728945e-07 3.089625e-29)
(-6.443566e-07 9.353877e-07 -2.064286e-29)
(-1.283154e-06 4.789038e-07 -2.413828e-30)
(-1.616979e-06 4.398321e-07 -3.65242e-29)
(1.029908e-06 8.051267e-07 -5.487383e-29)
(9.871893e-07 4.368179e-07 -5.484855e-29)
(8.540686e-07 1.037532e-06 3.678029e-30)
(8.840798e-07 8.600201e-07 -4.179525e-29)
(5.55556e-07 1.188535e-06 -1.738065e-25)
(6.585474e-07 9.863215e-07 3.678967e-30)
(1.402446e-07 1.172502e-06 1.503171e-24)
(3.15407e-07 1.017016e-06 3.963668e-25)
(-3.82149e-07 9.677813e-07 -2.519292e-29)
(-1.364923e-07 8.820029e-07 -2.691092e-29)
(-9.761897e-07 5.803638e-07 -5.396166e-29)
(-6.864471e-07 5.667156e-07 3.438299e-31)
(-1.302723e-06 8.450916e-08 1.786955e-25)
(-1.633374e-06 2.488044e-08 -1.402723e-28)
(8.684176e-07 7.155402e-07 -4.177506e-29)
(8.453616e-07 3.950827e-07 0)
(7.131717e-07 8.656303e-07 -4.180368e-29)
(7.549243e-07 7.373343e-07 -4.641294e-25)
(4.414621e-07 9.45428e-07 1.452136e-29)
(5.519404e-07 7.908308e-07 1.0225e-30)
(6.063884e-08 8.717138e-07 1.766308e-25)
(2.354904e-07 7.608442e-07 1.53299e-29)
(-4.337702e-07 6.240186e-07 -1.208228e-30)
(-1.895774e-07 5.709611e-07 -1.572806e-30)
(-1.003498e-06 2.057496e-07 1.716655e-25)
(-7.179787e-07 2.181535e-07 3.436805e-31)
(-1.315223e-06 -2.90888e-07 -5.223019e-29)
(-1.640159e-06 -3.72924e-07 -4.552593e-29)
(7.545879e-07 6.371928e-07 -7.140712e-29)
(7.48942e-07 3.585056e-07 -3.586616e-29)
(6.142626e-07 7.138918e-07 -7.04342e-29)
(6.674402e-07 6.288419e-07 -3.928221e-25)
(3.636418e-07 7.279138e-07 -7.609854e-26)
(4.800673e-07 6.156123e-07 2.35874e-30)
(5.539624e-09 5.971859e-07 8.05194e-31)
(1.819989e-07 5.258331e-07 1.101472e-30)
(-4.687102e-07 3.027426e-07 0)
(-2.251849e-07 2.837201e-07 0)
(-1.02172e-06 -1.491994e-07 0)
(-7.37871e-07 -1.098503e-07 2.707285e-29)
(-1.323716e-06 -6.468237e-07 -1.275214e-29)
(-1.643824e-06 -7.494834e-07 -8.48801e-30)
(6.80786e-07 5.679669e-07 6.951745e-26)
(6.899865e-07 3.263535e-07 -3.144713e-25)
(5.512626e-07 5.782716e-07 -2.937919e-26)
(6.154588e-07 5.324983e-07 -6.027531e-29)
(3.152695e-07 5.303001e-07 -7.349806e-26)
(4.40069e-07 4.575857e-07 2.360531e-30)
(-2.756096e-08 3.450738e-07 3.138728e-31)
(1.547714e-07 3.106854e-07 2.233143e-32)
(-4.8798e-07 2.513568e-09 2.738757e-29)
(-2.402098e-07 1.782351e-08 0)
(-1.031621e-06 -4.855403e-07 -1.528214e-25)
(-7.438413e-07 -4.185728e-07 -1.990145e-25)
(-1.328283e-06 -9.865171e-07 -2.065337e-29)
(-1.64867e-06 -1.107785e-06 -1.036095e-25)
(6.396535e-07 5.070323e-07 6.914832e-26)
(6.600124e-07 2.985968e-07 -6.495294e-29)
(5.188384e-07 4.572105e-07 -2.827454e-26)
(5.921472e-07 4.479176e-07 -2.191484e-25)
(2.937883e-07 3.519041e-07 -1.450187e-25)
(4.262801e-07 3.160673e-07 -1.958546e-29)
(-3.990176e-08 1.131511e-07 -2.910513e-31)
(1.510906e-07 1.139441e-07 -2.863942e-31)
(-4.919605e-07 -2.768972e-07 3.053057e-29)
(-2.38941e-07 -2.302047e-07 2.524074e-29)
(-1.033171e-06 -8.070095e-07 2.223407e-29)
(-7.352872e-07 -7.04741e-07 8.929701e-29)
(-1.328595e-06 -1.310995e-06 1.090271e-29)
(-1.654519e-06 -1.452867e-06 -9.223158e-26)
(6.226827e-07 4.546594e-07 -8.791869e-29)
(6.48942e-07 2.758457e-07 -6.689811e-26)
(5.107736e-07 3.516002e-07 -7.686594e-29)
(5.887983e-07 3.766942e-07 -8.895927e-26)
(2.968598e-07 1.913722e-07 -2.062448e-29)
(4.344783e-07 1.93759e-07 -1.412695e-25)
(-2.85175e-08 -1.018976e-07 2.501193e-29)
(1.71512e-07 -6.029544e-08 -8.004459e-30)
(-4.633681e-07 -5.349297e-07 1.223563e-24)
(-2.081153e-07 -4.525541e-07 2.926096e-29)
(-1.015727e-06 -1.108171e-06 2.604329e-25)
(-7.008527e-07 -9.749267e-07 8.766952e-29)
(-1.313727e-06 -1.621417e-06 -4.416843e-29)
(-1.654499e-06 -1.785628e-06 1.880413e-29)
(6.189236e-07 4.121746e-07 -6.893045e-26)
(6.439114e-07 2.591163e-07 -3.069872e-29)
(5.180409e-07 2.644239e-07 2.944259e-26)
(5.935181e-07 3.223635e-07 8.017731e-26)
(3.172812e-07 5.534787e-08 -4.943569e-29)
(4.548336e-07 9.638213e-08 2.610536e-27)
(2.592491e-09 -2.877716e-07 1.514283e-25)
(2.069604e-07 -2.050374e-07 -7.868558e-26)
(-4.260543e-07 -7.669998e-07 3.209007e-29)
(-1.61324e-07 -6.429949e-07 4.124075e-30)
(-9.907319e-07 -1.393555e-06 -3.593445e-29)
(-6.555364e-07 -1.224303e-06 -2.427666e-25)
(-1.281411e-06 -1.917238e-06 3.370846e-25)
(-1.643902e-06 -2.109192e-06 -7.175163e-26)
(6.135535e-07 3.845353e-07 -2.728196e-29)
(6.256137e-07 2.502707e-07 2.763434e-29)
(5.285062e-07 2.020381e-07 3.197763e-26)
(5.909964e-07 2.90331e-07 -2.728595e-29)
(3.467114e-07 -4.947848e-08 -4.420379e-29)
(4.748466e-07 3.164524e-08 -2.08781e-29)
(4.893713e-08 -4.41541e-07 -2.335895e-29)
(2.492896e-07 -3.125803e-07 4.529479e-26)
(-3.714592e-07 -9.734065e-07 2.44551e-29)
(-1.025518e-07 -8.006546e-07 6.624892e-30)
(-9.416736e-07 -1.657484e-06 2.482399e-29)
(-5.92258e-07 -1.438641e-06 2.497333e-29)
(-1.225718e-06 -2.188996e-06 -3.814085e-25)
(-1.614146e-06 -2.420949e-06 1.109835e-28)
(5.863452e-07 3.752279e-07 2.763933e-29)
(5.696162e-07 2.524897e-07 -7.625924e-25)
(5.254417e-07 1.724418e-07 0)
(5.594511e-07 2.88787e-07 0)
(3.722486e-07 -1.128321e-07 3.162431e-30)
(4.776544e-07 1.117333e-08 0)
(9.991378e-08 -5.509854e-07 1.573551e-25)
(2.877395e-07 -3.689195e-07 -2.260379e-25)
(-3.070072e-07 -1.137385e-06 6.761e-30)
(-3.586775e-08 -9.084453e-07 5.940076e-26)
(-8.730378e-07 -1.881814e-06 4.258445e-29)
(-5.15472e-07 -1.608666e-06 1.23434e-29)
(-1.13942e-06 -2.415407e-06 4.230839e-29)
(-1.560671e-06 -2.71261e-06 7.609978e-29)
(5.100959e-07 3.912701e-07 4.497141e-29)
(4.42658e-07 2.698712e-07 -1.243112e-24)
(4.86e-07 1.878796e-07 0)
(4.695624e-07 3.291459e-07 4.755833e-32)
(3.775386e-07 -1.187137e-07 1.087209e-29)
(4.39854e-07 5.220841e-08 1.589362e-29)
(1.489955e-07 -5.991285e-07 -1.705443e-25)
(3.069649e-07 -3.520425e-07 1.481506e-29)
(-2.29017e-07 -1.247652e-06 1.474665e-29)
(3.71665e-08 -9.387299e-07 -2.698278e-25)
(-7.566892e-07 -2.048932e-06 1.24208e-29)
(-3.999091e-07 -1.697456e-06 1.57329e-25)
(-1.005035e-06 -2.585491e-06 0)
(-1.461382e-06 -2.961509e-06 -6.468018e-29)
(3.479639e-07 4.419505e-07 1.256427e-29)
(2.002766e-07 3.075816e-07 1.250925e-29)
(3.782816e-07 2.652926e-07 5.271347e-26)
(2.813528e-07 4.259645e-07 5.105195e-31)
(3.367514e-07 -4.356524e-08 1.983488e-29)
(3.274494e-07 1.7695e-07 -1.379224e-24)
(1.764495e-07 -5.548314e-07 1.850446e-25)
(2.789888e-07 -2.338984e-07 3.938963e-30)
(-1.398111e-07 -1.257257e-06 1.159024e-29)
(8.943635e-08 -8.600388e-07 5.736252e-25)
(-6.26791e-07 -2.124996e-06 4.345822e-30)
(-2.789041e-07 -1.679353e-06 5.181764e-29)
(-8.498858e-07 -2.676594e-06 3.487416e-29)
(-1.338509e-06 -3.150105e-06 -9.796446e-29)
(5.135327e-08 5.385423e-07 4.626885e-31)
(-2.152195e-07 3.716866e-07 3.300261e-29)
(1.594266e-07 4.253891e-07 5.544684e-30)
(-5.764845e-08 5.965737e-07 2.428801e-24)
(2.145217e-07 1.402582e-07 5.08607e-30)
(9.503529e-08 4.12095e-07 -8.093362e-30)
(1.557909e-07 -3.881805e-07 5.197215e-30)
(1.679404e-07 1.900028e-08 0)
(-6.566812e-08 -1.147357e-06 3.651667e-25)
(9.928389e-08 -6.366255e-07 -9.030398e-30)
(-4.812321e-07 -2.102979e-06 2.828955e-25)
(-1.624443e-07 -1.527977e-06 4.750993e-29)
(-6.575449e-07 -2.641012e-06 7.110572e-29)
(-1.158503e-06 -3.257149e-06 -1.37678e-29)
(-4.421669e-07 6.939227e-07 5.772472e-29)
(-8.760449e-07 4.688601e-07 3.606991e-24)
(-2.267538e-07 6.925412e-07 1.157053e-29)
(-6.144884e-07 8.60432e-07 8.74062e-29)
(-3.700212e-08 4.667566e-07 -1.317787e-29)
(-3.167109e-07 7.890136e-07 -2.967556e-24)
(4.978904e-08 -5.686297e-08 -1.421568e-29)
(-7.582648e-08 4.482163e-07 0)
(-3.157972e-08 -8.652467e-07 -4.245489e-25)
(2.944314e-08 -2.173387e-07 -1.421771e-29)
(-3.333741e-07 -1.918241e-06 3.349424e-25)
(-7.081455e-08 -1.181006e-06 -1.149572e-29)
(-4.415934e-07 -2.422882e-06 -2.39685e-28)
(-9.201076e-07 -3.219417e-06 1.574328e-29)
(-1.210095e-06 9.226545e-07 1.387435e-28)
(-1.87089e-06 6.055906e-07 2.15768e-28)
(-8.515439e-07 1.094138e-06 1.936705e-29)
(-1.471971e-06 1.237916e-06 4.477402e-24)
(-4.810651e-07 9.753409e-07 -4.335261e-29)
(-9.836714e-07 1.341729e-06 -4.331865e-29)
(-1.937063e-07 4.897093e-07 0)
(-5.198445e-07 1.101029e-06 -5.75746e-29)
(-7.096462e-08 -3.524125e-07 -1.147324e-29)
(-1.746475e-07 4.599866e-07 -9.027548e-30)
(-1.968647e-07 -1.513541e-06 -2.835607e-28)
(-3.117799e-08 -5.538844e-07 2.202266e-24)
(-1.713164e-07 -1.890346e-06 -2.015016e-24)
(-5.661857e-07 -2.955273e-06 -2.012079e-24)
(-2.346375e-06 1.23799e-06 -2.259484e-25)
(-3.303212e-06 7.913076e-07 5.943882e-24)
(-1.80368e-06 1.654894e-06 1.20488e-28)
(-2.726786e-06 1.743301e-06 1.207879e-28)
(-1.201042e-06 1.707088e-06 -5.752751e-29)
(-2.00297e-06 2.100426e-06 1.635382e-28)
(-6.510462e-07 1.309177e-06 -6.947002e-25)
(-1.255456e-06 2.024452e-06 -5.006474e-24)
(-2.530465e-07 4.725431e-07 -3.024177e-30)
(-6.016656e-07 1.456773e-06 5.068961e-29)
(-1.021646e-07 -7.552264e-07 4.668583e-25)
(-1.446824e-07 4.232542e-07 3.242791e-24)
(7.044169e-09 -1.016497e-06 1.843497e-24)
(-2.614212e-07 -2.289857e-06 3.158335e-25)
(-3.959459e-06 1.64829e-06 2.287492e-28)
(-5.299841e-06 1.021856e-06 2.266666e-28)
(-3.187381e-06 2.401791e-06 1.639458e-28)
(-4.503099e-06 2.397357e-06 0)
(-2.29837e-06 2.695319e-06 -4.069339e-25)
(-3.480563e-06 3.08864e-06 7.012974e-24)
(-1.42099e-06 2.45237e-06 -4.961424e-29)
(-2.39689e-06 3.256561e-06 -1.091697e-28)
(-6.672594e-07 1.666747e-06 8.008295e-29)
(-1.355633e-06 2.832402e-06 6.174212e-24)
(-1.534568e-07 3.726104e-07 -1.015113e-29)
(-4.819791e-07 1.82616e-06 5.104834e-24)
(9.783068e-08 2.746572e-07 -8.494795e-30)
(-2.818408e-09 -1.364e-06 -1.261183e-28)
(-6.171859e-06 2.159708e-06 0)
(-7.952169e-06 1.299013e-06 5.091935e-28)
(-5.118044e-06 3.344307e-06 5.18387e-28)
(-6.895343e-06 3.206002e-06 -4.517242e-28)
(-3.894002e-06 3.972981e-06 5.164438e-28)
(-5.547244e-06 4.299049e-06 8.881004e-24)
(-2.627543e-06 3.96097e-06 2.427247e-28)
(-4.070233e-06 4.813154e-06 0)
(-1.431305e-06 3.309966e-06 2.90026e-28)
(-2.584976e-06 4.637177e-06 8.478291e-24)
(-4.289041e-07 2.013674e-06 6.926299e-29)
(-1.186489e-06 3.759797e-06 4.704259e-29)
(-1.535655e-08 2.186209e-06 -6.523612e-24)
(1.929027e-07 1.024118e-07 2.245733e-29)
(-9.070386e-06 2.772315e-06 -6.29615e-25)
(-1.137611e-05 1.615665e-06 8.899685e-24)
(-7.729657e-06 4.466577e-06 -8.421145e-28)
(-1.005467e-05 4.120769e-06 -9.294681e-24)
(-6.137306e-06 5.521497e-06 -3.872911e-28)
(-8.373818e-06 5.755228e-06 -1.957736e-23)
(-4.429901e-06 5.864861e-06 2.179419e-28)
(-6.459684e-06 6.664455e-06 -9.697963e-28)
(-2.718962e-06 5.46064e-06 2.178904e-28)
(-4.468663e-06 6.883446e-06 5.48522e-28)
(-1.10705e-06 4.297861e-06 -3.411463e-29)
(-2.479643e-06 6.29189e-06 -2.008751e-29)
(-5.789375e-07 4.848642e-06 -3.016257e-29)
(2.457791e-07 2.348545e-06 -2.020329e-24)
(-1.276936e-05 3.435678e-06 5.214586e-29)
(-1.561048e-05 1.949085e-06 7.007213e-28)
(-1.114279e-05 5.725635e-06 -2.366278e-27)
(-1.400714e-05 5.074501e-06 -6.60279e-28)
(-9.195321e-06 7.317954e-06 -2.706439e-27)
(-1.206756e-05 7.316262e-06 -1.059521e-23)
(-7.02573e-06 8.123297e-06 1.287476e-24)
(-9.783598e-06 8.789654e-06 -2.462308e-23)
(-4.754476e-06 8.146267e-06 3.105674e-28)
(-7.253725e-06 9.528911e-06 1.48671e-23)
(-2.442429e-06 7.291567e-06 1.378699e-24)
(-4.622225e-06 9.43761e-06 -1.005433e-28)
(-1.874136e-06 8.374224e-06 -1.038726e-28)
(-2.029268e-07 5.466747e-06 -2.932045e-24)
(-1.727076e-05 4.118456e-06 3.80581e-25)
(-2.065352e-05 2.266878e-06 4.706358e-31)
(-1.538536e-05 7.00266e-06 -8.575578e-28)
(-1.87662e-05 6.002486e-06 1.424285e-30)
(-1.319061e-05 9.191186e-06 1.274094e-24)
(-1.659254e-05 8.820031e-06 -1.903012e-27)
(-1.061254e-05 1.062935e-05 -2.413305e-24)
(-1.407361e-05 1.101001e-05 -1.841291e-27)
(-7.82995e-06 1.129265e-05 5.765638e-28)
(-1.119349e-05 1.23587e-05 1.260712e-27)
(-4.776351e-06 1.105427e-05 3.313355e-24)
(-7.998188e-06 1.309705e-05 -6.177068e-28)
(-4.340847e-06 1.28352e-05 -1.076847e-28)
(-1.473649e-06 9.677335e-06 3.868115e-24)
(-2.253065e-05 4.726829e-06 -4.002109e-25)
(-2.638385e-05 2.510698e-06 3.306152e-30)
(-2.044559e-05 8.176249e-06 -1.040086e-27)
(-2.426372e-05 6.73762e-06 8.549088e-30)
(-1.81093e-05 1.098694e-05 -9.627777e-25)
(-2.202833e-05 1.007226e-05 -9.431656e-24)
(-1.54258e-05 1.313976e-05 -8.391544e-24)
(-1.957386e-05 1.293902e-05 -1.371025e-23)
(-1.230653e-05 1.465297e-05 -2.708769e-24)
(-1.666443e-05 1.524326e-05 -1.388265e-27)
(-8.605929e-06 1.54739e-05 -5.369435e-28)
(-1.311608e-05 1.69232e-05 -2.709401e-23)
(-8.657776e-06 1.809763e-05 0)
(-4.17156e-06 1.51354e-05 1.985777e-29)
(-2.836648e-05 5.126982e-06 0)
(-3.25159e-05 2.610283e-06 7.456355e-30)
(-2.62037e-05 8.969054e-06 -1.434137e-27)
(-3.024148e-05 7.070349e-06 -1.932845e-29)
(-2.400321e-05 1.227038e-05 -2.930032e-27)
(-2.813352e-05 1.071588e-05 -1.493914e-27)
(-2.155968e-05 1.5235e-05 9.412419e-25)
(-2.60558e-05 1.406591e-05 -1.491349e-27)
(-1.857539e-05 1.78718e-05 6.519597e-24)
(-2.370201e-05 1.736915e-05 -1.718191e-23)
(-1.455506e-05 2.015977e-05 -1.678949e-27)
(-2.0502e-05 2.05134e-05 -1.476212e-27)
(-1.566852e-05 2.367547e-05 5.191406e-28)
(-9.182589e-06 2.16781e-05 4.133759e-28)
(-3.441799e-05 5.17204e-06 -7.928995e-25)
(-3.858372e-05 2.488448e-06 2.158457e-27)
(-3.233238e-05 9.109126e-06 6.920256e-25)
(-3.627106e-05 6.775208e-06 -3.782336e-29)
(-3.053818e-05 1.2675e-05 -5.94314e-29)
(-3.453848e-05 1.038778e-05 2.12469e-27)
(-2.87875e-05 1.619599e-05 -3.399121e-27)
(-3.32011e-05 1.396832e-05 0)
(-2.663948e-05 1.998379e-05 -3.309431e-27)
(-3.189447e-05 1.793904e-05 -1.256792e-23)
(-2.313864e-05 2.429277e-05 -3.338326e-25)
(-2.990151e-05 2.280696e-05 -5.004266e-28)
(-2.618093e-05 2.824219e-05 3.374199e-27)
(-1.764508e-05 2.86724e-05 -3.548179e-24)
(-4.013405e-05 4.701607e-06 7.305113e-25)
(-4.392498e-05 2.072373e-06 -1.731963e-23)
(-3.831002e-05 8.277198e-06 2.162568e-27)
(-4.170891e-05 5.627663e-06 2.40619e-27)
(-3.724356e-05 1.170178e-05 2.18476e-27)
(-4.060509e-05 8.6897e-06 -1.2673e-23)
(-3.66792e-05 1.548675e-05 -2.428023e-27)
(-4.044561e-05 1.200301e-05 1.170258e-28)
(-3.601563e-05 2.022133e-05 -3.53662e-24)
(-4.093906e-05 1.617672e-05 -2.105561e-27)
(-3.471229e-05 2.636968e-05 2.648443e-23)
(-4.137062e-05 2.200449e-05 -5.827669e-24)
(-4.069489e-05 3.014097e-05 4.215187e-27)
(-3.075073e-05 3.450013e-05 -5.876418e-25)
(-4.477018e-05 3.574677e-06 6.213055e-25)
(-4.770947e-05 1.318969e-06 2.401913e-27)
(-4.337575e-05 6.195493e-06 4.956291e-27)
(-4.571863e-05 3.473538e-06 -2.640833e-23)
(-4.331612e-05 8.864485e-06 2.650552e-27)
(-4.541053e-05 5.333915e-06 -2.565242e-28)
(-4.441538e-05 1.221942e-05 3.234071e-24)
(-4.670355e-05 7.671393e-06 8.689191e-29)
(-4.624695e-05 1.703101e-05 5.538641e-24)
(-4.942047e-05 1.12171e-05 3.726344e-27)
(-4.81423e-05 2.428021e-05 1.795155e-23)
(-5.308381e-05 1.695894e-05 -2.092668e-27)
(-5.700877e-05 2.677007e-05 1.338247e-27)
(-4.83244e-05 3.615506e-05 2.246214e-23)
(-4.745679e-05 1.739785e-06 -2.589577e-27)
(-4.90621e-05 2.345404e-07 -2.564604e-27)
(-4.659809e-05 2.707561e-06 1.071305e-25)
(-4.733341e-05 2.691566e-07 7.585748e-23)
(-4.769477e-05 3.918835e-06 -9.54611e-25)
(-4.790354e-05 2.520235e-07 3.830018e-23)
(-5.070169e-05 6.019446e-06 3.367837e-27)
(-5.074003e-05 7.945589e-07 -6.509207e-27)
(-5.542401e-05 9.949245e-06 7.426829e-24)
(-5.589535e-05 2.708517e-06 -4.251128e-23)
(-6.119164e-05 1.701504e-05 1.613836e-28)
(-6.328784e-05 6.94141e-06 -4.006097e-27)
(-7.276058e-05 1.49667e-05 -9.26869e-31)
(-6.922075e-05 2.980869e-05 -1.209504e-28)
(-4.724192e-05 -7.071867e-07 -7.919983e-27)
(-4.703955e-05 -1.13478e-06 4.656893e-23)
(-4.692237e-05 -2.1262e-06 1.077816e-24)
(-4.555408e-05 -3.791407e-06 -5.362466e-27)
(-4.923327e-05 -3.168875e-06 -9.490712e-27)
(-4.690405e-05 -6.572567e-06 -2.988634e-27)
(-5.411129e-05 -3.223086e-06 -2.8281e-27)
(-5.128278e-05 -8.393631e-06 1.042724e-22)
(-6.153687e-05 -1.485062e-06 6.774386e-24)
(-5.858743e-05 -8.94775e-06 -3.942719e-27)
(-7.301316e-05 2.950191e-06 -4.176663e-27)
(-6.857066e-05 -8.937622e-06 -1.488244e-23)
(-8.705184e-05 -1.325088e-05 -8.082755e-31)
(-9.547125e-05 1.355365e-05 -1.217019e-26)
(-4.329443e-05 -3.671353e-06 -4.573042e-25)
(-4.093474e-05 -2.706639e-06 -4.112303e-28)
(-4.335584e-05 -8.021665e-06 -1.487706e-29)
(-3.963541e-05 -8.44009e-06 4.218861e-29)
(-4.665601e-05 -1.215103e-05 1.419713e-29)
(-4.142217e-05 -1.451089e-05 9.950819e-29)
(-5.335279e-05 -1.501573e-05 -7.671357e-27)
(-4.704449e-05 -1.985303e-05 -1.398087e-22)
(-6.466868e-05 -1.577684e-05 -1.222852e-26)
(-5.637108e-05 -2.457841e-05 -1.911095e-23)
(-9.07486e-05 -1.603511e-05 -4.632876e-27)
(-7.392374e-05 -4.03175e-05 5.780644e-27)
(-0.0001246139 -8.170895e-05 -6.383447e-27)
(-0.0001496567 -1.589739e-05 -2.304233e-26)
(-3.502632e-05 -6.929968e-06 2.012102e-27)
(-3.030016e-05 -4.348556e-06 -5.05512e-23)
(-3.527696e-05 -1.455614e-05 3.657753e-25)
(-2.914457e-05 -1.331116e-05 5.672923e-29)
(-3.88678e-05 -2.232827e-05 4.75883e-27)
(-3.094889e-05 -2.260524e-05 3.832641e-28)
(-4.858253e-05 -2.883803e-05 -4.442293e-23)
(-3.649561e-05 -3.395047e-05 5.122638e-27)
(-7.477287e-05 -3.453197e-05 9.071101e-27)
(-5.238031e-05 -5.635376e-05 5.623423e-22)
(-0.0001367083 -4.932242e-05 -1.017317e-21)
(-0.0001030577 -0.0001104244 1.782392e-21)
(-0.0002067004 -0.0002012254 -1.307924e-26)
(-0.0002412333 -6.884149e-05 -1.879448e-21)
(-2.21268e-05 -1.016349e-05 1.310913e-27)
(-1.512365e-05 -5.899758e-06 1.311092e-27)
(-2.218301e-05 -2.103253e-05 2.843747e-28)
(-1.396769e-05 -1.763671e-05 2.0259e-28)
(-2.596848e-05 -3.216093e-05 1.941522e-23)
(-1.50428e-05 -3.056744e-05 6.486546e-28)
(-4.501246e-05 -4.698177e-05 9.22625e-27)
(-2.09076e-05 -5.798722e-05 2.523911e-27)
(-0.0001040417 -7.210429e-05 2.752664e-26)
(-6.303897e-05 -0.0001274469 1.071789e-26)
(-0.0002155376 -0.0001110762 1.147406e-26)
(-0.0001607371 -0.0002357264 -2.096561e-26)
(-0.0002945146 -0.0003461289 -4.399405e-26)
(-0.0003242257 -0.0001272236 -3.692329e-21)
(-4.771923e-06 -1.295794e-05 2.021888e-28)
(4.258683e-06 -7.047834e-06 0)
(-4.569374e-06 -2.619747e-05 8.111379e-24)
(5.539436e-06 -2.128937e-05 -3.068847e-28)
(-1.320716e-05 -4.129865e-05 2.429456e-27)
(5.196274e-06 -4.348347e-05 -1.869047e-27)
(-5.677856e-05 -7.773367e-05 3.983067e-27)
(-1.582125e-05 -0.0001082302 5.593108e-22)
(-0.0001529058 -0.00014022 -2.145282e-21)
(-9.713694e-05 -0.0002401518 8.889859e-22)
(-0.000267006 -0.0001897609 -1.389259e-20)
(-0.0002213615 -0.0003925234 -7.377382e-26)
(-0.0002607822 -0.0005154238 -5.672292e-26)
(-0.0003561068 -0.000139787 -3.372081e-26)
(1.680606e-05 -1.501537e-05 -5.077944e-28)
(2.702828e-05 -7.110705e-06 -1.810337e-27)
(1.552995e-05 -3.051652e-05 -2.78154e-27)
(3.041419e-05 -2.566679e-05 5.479063e-24)
(-9.351456e-06 -5.994869e-05 -1.523658e-21)
(2.388494e-05 -7.555404e-05 -2.232926e-27)
(-8.512057e-05 -0.0001319469 4.77916e-27)
(-2.789556e-05 -0.0001970077 -3.928209e-27)
(-0.0001932155 -0.0002160611 -2.553107e-26)
(-0.0001270679 -0.000365465 8.731109e-27)
(-0.0002826625 -0.000223905 -1.340584e-20)
(-0.0001956545 -0.0005429136 -2.504674e-21)
(-0.0001819419 -0.0007268598 -1.803832e-26)
(-0.0002863342 -0.0001443804 -3.18548e-26)
(4.053384e-05 -1.409296e-05 9.040526e-24)
(5.020593e-05 -6.047644e-06 2.305016e-23)
(3.242556e-05 -3.754091e-05 -1.733012e-27)
(5.585709e-05 -3.677499e-05 -1.729001e-27)
(-1.578617e-05 -0.0001005994 1.102062e-30)
(3.235676e-05 -0.000133378 -2.503291e-28)
(-0.0001025987 -0.00020015 -9.105556e-30)
(-4.379107e-05 -0.0003051955 -4.244426e-27)
(-0.0001951249 -0.0002472807 1.093208e-28)
(-9.430227e-05 -0.0004845189 1.983222e-26)
(-0.0002444913 -0.0001980932 1.161316e-28)
(-0.000113085 -0.0006932262 5.013219e-21)
(-9.459199e-05 -0.0009144558 3.433247e-26)
(-0.0002741996 -0.0001597837 1.869488e-29)
(6.060592e-05 -1.15068e-05 -2.976329e-27)
(7.165277e-05 -6.998438e-06 -2.974133e-27)
(3.973731e-05 -5.413177e-05 -2.499716e-28)
(7.126784e-05 -6.242708e-05 -1.116074e-31)
(-2.264082e-05 -0.0001506125 -4.415943e-27)
(3.187502e-05 -0.0002058333 9.011293e-22)
(-0.0001005898 -0.000240787 1.532821e-26)
(-2.535879e-05 -0.0003963969 -1.775024e-21)
(-0.0001432637 -0.0002262906 1.709941e-20)
(-4.033125e-05 -0.0006102839 2.033723e-26)
(-0.0001705951 -0.0001841605 5.960127e-26)
(-3.327379e-05 -0.0008500854 6.695453e-21)
(2.624592e-05 -0.001090111 4.96824e-20)
(-0.0002507136 -0.0002033857 3.985863e-20)
(7.156201e-05 -1.331023e-05 -1.540661e-31)
(8.720759e-05 -1.537884e-05 -2.562678e-33)
(3.664401e-05 -8.128271e-05 2.997342e-27)
(7.26741e-05 -0.0001038669 -2.181943e-31)
(-2.335391e-05 -0.0001832472 1.646428e-21)
(3.086078e-05 -0.0002743902 6.762289e-27)
(-7.593696e-05 -0.0002192273 2.600814e-27)
(1.016315e-05 -0.000477008 6.247236e-27)
(-0.0001137016 -0.0001859137 -5.649234e-29)
(2.164269e-05 -0.0007186417 5.537336e-21)
(-0.0001696914 -0.0002013268 4.87764e-26)
(1.113065e-05 -0.0009983943 9.113397e-28)
(-3.60606e-05 -0.001341618 -1.084383e-20)
(-0.0002186445 -0.0002563338 8.678085e-20)
(7.480814e-05 -2.680118e-05 -6.677235e-32)
(9.821652e-05 -3.31383e-05 2.333252e-27)
(2.949278e-05 -0.0001148292 3.768267e-27)
(7.186894e-05 -0.0001552662 1.229512e-27)
(-2.133262e-05 -0.0001901246 2.329255e-21)
(3.734466e-05 -0.0003339243 1.82904e-21)
(-5.620014e-05 -0.0001791464 5.385649e-28)
(4.334133e-05 -0.0005549335 4.033481e-21)
(-9.990931e-05 -0.0001686533 -2.149243e-27)
(5.746888e-05 -0.0008238681 6.639028e-21)
(-0.0001832756 -0.0002322643 -1.929839e-28)
(3.130111e-05 -0.001154165 -9.253277e-21)
(-3.572704e-05 -0.001551895 1.133785e-26)