/*--------------------------------*- C++ -*----------------------------------*\
| =========                 |                                                 |
| \\      /  F ield         | OpenFOAM: The Open Source CFD Toolbox           |
|  \\    /   O peration     | Version:  v2006                                 |
|   \\  /    A nd           | Website:  www.openfoam.com                      |
|    \\/     M anipulation  |                                                 |
\*---------------------------------------------------------------------------*/
FoamFile
{
    version     2.0;
    format      ascii;
    class       volScalarField;
    location    "1600";
    object      p;
}
// * * * * * * * * * * * * * * * * * * * * * * * * * * * * * * * * * * * * * //

dimensions      [1 -1 -2 0 0 0 0];


internalField   nonuniform List<scalar> 
120
(
-2.17726
-6.83704
-11.4968
-16.1567
-20.8166
-25.4765
-30.1364
-34.7964
-39.4564
-44.1164
-48.7765
-53.4366
-58.0967
-62.7569
-67.4171
-72.0773
-76.7376
-81.3979
-86.0582
-90.7186
-95.379
-100.039
-104.7
-109.36
-114.021
-118.682
-123.342
-128.003
-132.664
-137.324
-141.985
-146.646
-151.307
-155.968
-160.629
-165.29
-169.951
-174.612
-179.273
-183.934
-188.595
-193.256
-197.918
-202.579
-207.24
-211.902
-216.563
-221.225
-225.886
-230.548
-235.209
-239.871
-244.533
-249.194
-253.856
-258.518
-263.18
-267.842
-272.504
-277.166
-281.828
-286.49
-291.152
-295.815
-300.477
-305.139
-309.801
-314.464
-319.126
-323.789
-328.451
-333.114
-337.776
-342.439
-347.102
-351.764
-356.427
-361.09
-365.753
-370.416
-375.078
-379.741
-384.404
-389.067
-393.73
-398.393
-403.056
-407.719
-412.382
-417.045
-421.706
-426.366
-431.027
-435.687
-440.346
-445.006
-449.666
-454.326
-458.985
-463.645
-468.305
-472.965
-477.624
-482.284
-486.944
-491.604
-496.263
-500.923
-505.583
-510.243
-514.902
-519.562
-524.222
-528.882
-533.541
-538.201
-542.861
-547.521
-552.18
-556.84
)
;

boundaryField
{
    inlet
    {
        type            cyclic;
    }
    outlet
    {
        type            cyclic;
    }
    top
    {
        type            calculated;
        value           uniform -559.17;
    }
    bottom
    {
        type            calculated;
        value           uniform 0.152618;
    }
    frontAndBackPlanes
    {
        type            empty;
    }
}


// ************************************************************************* //
