/*--------------------------------*- C++ -*----------------------------------*\
| =========                 |                                                 |
| \\      /  F ield         | OpenFOAM: The Open Source CFD Toolbox           |
|  \\    /   O peration     | Version:  v2006                                 |
|   \\  /    A nd           | Website:  www.openfoam.com                      |
|    \\/     M anipulation  |                                                 |
\*---------------------------------------------------------------------------*/
FoamFile
{
    version     2.0;
    format      ascii;
    class       volScalarField;
    location    "1600";
    object      p_p_total;
}
// * * * * * * * * * * * * * * * * * * * * * * * * * * * * * * * * * * * * * //

dimensions      [1 -1 -2 0 0 0 0];


internalField   nonuniform List<scalar> 
120
(
26.1502
25.8559
25.5616
25.2674
24.9732
24.6791
24.385
24.091
23.797
23.5031
23.2092
22.9154
22.6216
22.3279
22.0343
21.7406
21.4471
21.1536
20.8601
20.5667
20.2734
19.9801
19.6869
19.3937
19.1006
18.8076
18.5146
18.2216
17.9288
17.636
17.3432
17.0505
16.7579
16.4654
16.1729
15.8805
15.5882
15.2959
15.0037
14.7116
14.4195
14.1275
13.8356
13.5438
13.252
12.9604
12.6688
12.3772
12.0858
11.7945
11.5032
11.212
10.9209
10.63
10.339
10.0482
9.75751
9.46688
9.17635
8.88592
8.59558
8.30534
8.01521
7.72517
7.43524
7.14542
6.8557
6.56609
6.2766
5.98722
5.69796
5.40882
5.11981
4.83093
4.5422
4.2536
3.96516
3.67688
3.38877
3.10085
2.81312
2.5256
2.23832
1.95129
1.66451
1.37814
1.0926
0.806867
0.512025
0.197139
0
0
0
0
0
0
0
0
0
0
0
0
0
0
0
0
0
0
0
0
0
0
0
0
0
0
0
0
0
0
)
;

boundaryField
{
    inlet
    {
        type            cyclic;
    }
    outlet
    {
        type            cyclic;
    }
    top
    {
        type            calculated;
        value           uniform 0;
    }
    bottom
    {
        type            calculated;
        value           uniform 26.1502;
    }
    frontAndBackPlanes
    {
        type            empty;
    }
}


// ************************************************************************* //
