/*--------------------------------*- C++ -*----------------------------------*\
| =========                 |                                                 |
| \\      /  F ield         | OpenFOAM: The Open Source CFD Toolbox           |
|  \\    /   O peration     | Version:  v2006                                 |
|   \\  /    A nd           | Website:  www.openfoam.com                      |
|    \\/     M anipulation  |                                                 |
\*---------------------------------------------------------------------------*/
FoamFile
{
    version     2.0;
    format      ascii;
    class       surfaceScalarField;
    location    "1600";
    object      phia;
}
// * * * * * * * * * * * * * * * * * * * * * * * * * * * * * * * * * * * * * //

dimensions      [0 3 -1 0 0 0 0];
oriented        oriented;


internalField   nonuniform List<scalar> 
119
(
-7.5297e-17
-1.51458e-16
-2.28486e-16
-3.06385e-16
-3.85157e-16
-4.64806e-16
-5.45335e-16
-6.26748e-16
-7.09048e-16
-7.92237e-16
-8.76319e-16
-9.61296e-16
-1.04717e-15
-1.13395e-15
-1.22162e-15
-1.31021e-15
-1.3997e-15
-1.4901e-15
-1.58142e-15
-1.67365e-15
-1.76679e-15
-1.86086e-15
-1.95585e-15
-2.05176e-15
-2.14861e-15
-2.24638e-15
-2.3451e-15
-2.44475e-15
-2.54535e-15
-2.6469e-15
-2.74941e-15
-2.85289e-15
-2.95735e-15
-3.06281e-15
-3.16926e-15
-3.27674e-15
-3.38525e-15
-3.49481e-15
-3.60545e-15
-3.71718e-15
-3.83003e-15
-3.94403e-15
-4.05919e-15
-4.17555e-15
-4.29312e-15
-4.41193e-15
-4.532e-15
-4.65334e-15
-4.77597e-15
-4.8999e-15
-5.02511e-15
-5.1516e-15
-5.27936e-15
-5.40834e-15
-5.53851e-15
-5.66981e-15
-5.80217e-15
-5.93551e-15
-6.06974e-15
-6.20474e-15
-6.3404e-15
-6.47657e-15
-6.61313e-15
-6.74992e-15
-6.88679e-15
-7.02358e-15
-7.16014e-15
-7.29632e-15
-7.43198e-15
-7.56697e-15
-7.70117e-15
-7.83447e-15
-7.96677e-15
-8.09798e-15
-8.22802e-15
-8.35683e-15
-8.48433e-15
-8.61048e-15
-8.73523e-15
-8.85853e-15
-8.98036e-15
-9.10074e-15
-9.21974e-15
-9.33752e-15
-9.45442e-15
-9.57078e-15
-9.68603e-15
-9.8074e-15
-1.00247e-14
-2.07483e-14
-8.66811e-13
-4.04566e-11
-5.64011e-11
-8.21862e-11
-8.22697e-11
-8.22746e-11
-8.22765e-11
-8.22766e-11
-8.22766e-11
-8.22766e-11
-8.22766e-11
-8.22766e-11
-8.22766e-11
-8.22766e-11
-8.22766e-11
-8.22766e-11
-8.22766e-11
-8.22766e-11
-8.22766e-11
-8.22766e-11
-8.22766e-11
-8.22766e-11
-8.22766e-11
-8.22766e-11
-8.22766e-11
-8.22766e-11
-8.22766e-11
-8.22565e-11
-8.21697e-11
)
;

boundaryField
{
    inlet
    {
        type            cyclic;
        value           nonuniform List<scalar> 
120
(
-1.07026e-27
-3.21261e-27
-5.35925e-27
-7.48263e-27
-9.61602e-27
-1.17623e-26
-1.39243e-26
-1.60442e-26
-1.81856e-26
-2.04122e-26
-2.26661e-26
-2.49504e-26
-2.73286e-26
-2.9743e-26
-3.21966e-26
-3.46924e-26
-3.72332e-26
-3.98222e-26
-4.24624e-26
-4.51566e-26
-4.79079e-26
-5.07194e-26
-5.35938e-26
-5.65343e-26
-5.97865e-26
-6.31104e-26
-6.65089e-26
-6.98633e-26
-7.32978e-26
-7.68148e-26
-8.01743e-26
-8.33785e-26
-8.66725e-26
-9.00583e-26
-9.35377e-26
-9.71125e-26
-1.01027e-25
-1.05282e-25
-1.09394e-25
-1.13849e-25
-1.17919e-25
-1.22333e-25
-1.26605e-25
-1.30976e-25
-1.35447e-25
-1.40258e-25
-1.4468e-25
-1.49196e-25
-1.5356e-25
-1.58498e-25
-1.63519e-25
-1.68621e-25
-1.73798e-25
-1.79045e-25
-1.84357e-25
-1.89969e-25
-1.95633e-25
-2.01342e-25
-2.07087e-25
-2.12378e-25
-2.17687e-25
-2.23008e-25
-2.28329e-25
-2.33642e-25
-2.38936e-25
-2.43717e-25
-2.48941e-25
-2.54114e-25
-2.59225e-25
-2.64263e-25
-2.69216e-25
-2.73592e-25
-2.77861e-25
-2.82012e-25
-2.86036e-25
-2.89922e-25
-2.93661e-25
-2.97242e-25
-3.00658e-25
-3.03899e-25
-3.06958e-25
-3.09829e-25
-3.12505e-25
-3.1498e-25
-3.17249e-25
-3.19309e-25
-3.202e-25
-3.20875e-25
-3.21331e-25
-3.21567e-25
-3.21658e-25
-3.30588e-25
-3.44114e-25
-3.57293e-25
-3.69626e-25
-3.80858e-25
-3.90751e-25
-3.99075e-25
-4.05615e-25
-4.10178e-25
-4.12588e-25
-4.12699e-25
-4.10385e-25
-4.05552e-25
-3.98132e-25
-3.88085e-25
-3.75406e-25
-3.60111e-25
-3.42258e-25
-3.21919e-25
-2.99207e-25
-2.74256e-25
-2.47231e-25
-2.18308e-25
-1.877e-25
-1.5563e-25
-1.22341e-25
-8.80889e-26
-5.31406e-26
-1.77735e-26
)
;
    }
    outlet
    {
        type            cyclic;
        value           nonuniform List<scalar> 
120
(
1.07026e-27
3.21261e-27
5.35925e-27
7.48263e-27
9.61602e-27
1.17623e-26
1.39243e-26
1.60442e-26
1.81856e-26
2.04122e-26
2.26661e-26
2.49504e-26
2.73286e-26
2.9743e-26
3.21966e-26
3.46924e-26
3.72332e-26
3.98222e-26
4.24624e-26
4.51566e-26
4.79079e-26
5.07194e-26
5.35938e-26
5.65343e-26
5.97865e-26
6.31104e-26
6.65089e-26
6.98633e-26
7.32978e-26
7.68148e-26
8.01743e-26
8.33785e-26
8.66725e-26
9.00583e-26
9.35377e-26
9.71125e-26
1.01027e-25
1.05282e-25
1.09394e-25
1.13849e-25
1.17919e-25
1.22333e-25
1.26605e-25
1.30976e-25
1.35447e-25
1.40258e-25
1.4468e-25
1.49196e-25
1.5356e-25
1.58498e-25
1.63519e-25
1.68621e-25
1.73798e-25
1.79045e-25
1.84357e-25
1.89969e-25
1.95633e-25
2.01342e-25
2.07087e-25
2.12378e-25
2.17687e-25
2.23008e-25
2.28329e-25
2.33642e-25
2.38936e-25
2.43717e-25
2.48941e-25
2.54114e-25
2.59225e-25
2.64263e-25
2.69216e-25
2.73592e-25
2.77861e-25
2.82012e-25
2.86036e-25
2.89922e-25
2.93661e-25
2.97242e-25
3.00658e-25
3.03899e-25
3.06958e-25
3.09829e-25
3.12505e-25
3.1498e-25
3.17249e-25
3.19309e-25
3.202e-25
3.20875e-25
3.21331e-25
3.21567e-25
3.21658e-25
3.30588e-25
3.44114e-25
3.57293e-25
3.69626e-25
3.80858e-25
3.90751e-25
3.99075e-25
4.05615e-25
4.10178e-25
4.12588e-25
4.12699e-25
4.10385e-25
4.05552e-25
3.98132e-25
3.88085e-25
3.75406e-25
3.60111e-25
3.42258e-25
3.21919e-25
2.99207e-25
2.74256e-25
2.47231e-25
2.18308e-25
1.877e-25
1.5563e-25
1.22341e-25
8.80889e-26
5.31406e-26
1.77735e-26
)
;
    }
    top
    {
        type            fixedValue;
        value           uniform 0;
    }
    bottom
    {
        type            fixedValue;
        value           uniform 0;
    }
    frontAndBackPlanes
    {
        type            empty;
        value           nonuniform List<scalar> 0();
    }
}


// ************************************************************************* //
