/*--------------------------------*- C++ -*----------------------------------*\
| =========                 |                                                 |
| \\      /  F ield         | OpenFOAM: The Open Source CFD Toolbox           |
|  \\    /   O peration     | Version:  v2006                                 |
|   \\  /    A nd           | Website:  www.openfoam.com                      |
|    \\/     M anipulation  |                                                 |
\*---------------------------------------------------------------------------*/
FoamFile
{
    version     2.0;
    format      ascii;
    class       surfaceScalarField;
    location    "1600";
    object      phib;
}
// * * * * * * * * * * * * * * * * * * * * * * * * * * * * * * * * * * * * * //

dimensions      [0 3 -1 0 0 0 0];
oriented        oriented;


internalField   nonuniform List<scalar> 
119
(
1.1297e-16
2.27192e-16
3.42669e-16
4.59404e-16
5.774e-16
6.96662e-16
8.17192e-16
9.38994e-16
1.06207e-15
1.18642e-15
1.31206e-15
1.43897e-15
1.56717e-15
1.69665e-15
1.82742e-15
1.95947e-15
2.09282e-15
2.22746e-15
2.36339e-15
2.50061e-15
2.63912e-15
2.77894e-15
2.92004e-15
3.06244e-15
3.20614e-15
3.35115e-15
3.49746e-15
3.64507e-15
3.794e-15
3.94424e-15
4.09581e-15
4.24871e-15
4.40296e-15
4.55857e-15
4.71555e-15
4.87392e-15
5.0337e-15
5.19491e-15
5.35758e-15
5.52173e-15
5.68739e-15
5.85459e-15
6.02336e-15
6.19374e-15
6.36573e-15
6.53937e-15
6.71469e-15
6.8917e-15
7.07039e-15
7.25079e-15
7.43286e-15
7.61658e-15
7.8019e-15
7.98878e-15
8.17712e-15
8.36684e-15
8.55782e-15
8.74992e-15
8.94296e-15
9.13679e-15
9.33118e-15
9.52594e-15
9.72081e-15
9.91557e-15
1.01099e-14
1.03037e-14
1.04965e-14
1.06882e-14
1.08785e-14
1.10671e-14
1.12538e-14
1.14383e-14
1.16205e-14
1.18002e-14
1.1977e-14
1.21508e-14
1.23214e-14
1.24885e-14
1.26519e-14
1.28111e-14
1.29658e-14
1.31156e-14
1.32599e-14
1.33981e-14
1.35294e-14
1.36522e-14
1.37618e-14
1.3859e-14
1.40353e-14
1.94942e-14
2.13438e-13
1.66611e-13
3.04019e-16
5.869e-20
6.93483e-20
8.61891e-20
9.99874e-20
1.19292e-19
1.29482e-19
1.43638e-19
1.47507e-19
1.56581e-19
1.55105e-19
1.63681e-19
1.66431e-19
1.79296e-19
1.8024e-19
1.87136e-19
1.81768e-19
1.82394e-19
1.71525e-19
1.70768e-19
1.64916e-19
1.69365e-19
1.6439e-19
1.65291e-19
1.5689e-19
1.54186e-19
1.42029e-19
)
;

boundaryField
{
    inlet
    {
        type            cyclic;
        value           nonuniform List<scalar> 
120
(
-1.07026e-27
-3.21261e-27
-5.3594e-27
-7.48263e-27
-9.61602e-27
-1.17623e-26
-1.39255e-26
-1.60441e-26
-1.81838e-26
-2.04121e-26
-2.26661e-26
-2.49479e-26
-2.73286e-26
-2.9743e-26
-3.21966e-26
-3.46924e-26
-3.72332e-26
-3.98222e-26
-4.24624e-26
-4.51566e-26
-4.79079e-26
-5.07194e-26
-5.35937e-26
-5.65114e-26
-5.97864e-26
-6.31105e-26
-6.65221e-26
-6.98634e-26
-7.32979e-26
-7.68449e-26
-8.02055e-26
-8.33787e-26
-8.66725e-26
-9.00583e-26
-9.35376e-26
-9.7075e-26
-1.00988e-25
-1.05322e-25
-1.09354e-25
-1.13934e-25
-1.17876e-25
-1.22378e-25
-1.26605e-25
-1.30976e-25
-1.35398e-25
-1.40359e-25
-1.4468e-25
-1.49249e-25
-1.53451e-25
-1.58497e-25
-1.63519e-25
-1.68621e-25
-1.73798e-25
-1.79045e-25
-1.84293e-25
-1.89969e-25
-1.95633e-25
-2.01343e-25
-2.07227e-25
-2.12378e-25
-2.17687e-25
-2.23008e-25
-2.28329e-25
-2.33643e-25
-2.39094e-25
-2.43556e-25
-2.4894e-25
-2.54114e-25
-2.59225e-25
-2.64264e-25
-2.69394e-25
-2.73592e-25
-2.77861e-25
-2.82012e-25
-2.86036e-25
-2.89922e-25
-2.93661e-25
-2.97242e-25
-3.00658e-25
-3.03899e-25
-3.06958e-25
-3.09829e-25
-3.12505e-25
-3.1498e-25
-3.17251e-25
-3.19746e-25
-3.20202e-25
-3.20875e-25
-3.21331e-25
-3.21568e-25
-3.21806e-25
-3.30606e-25
-3.44143e-25
-3.57302e-25
-3.69625e-25
-3.80856e-25
-3.90749e-25
-3.99073e-25
-4.05614e-25
-4.10176e-25
-4.12587e-25
-4.12698e-25
-4.10385e-25
-4.05552e-25
-3.98132e-25
-3.88086e-25
-3.75406e-25
-3.60113e-25
-3.42258e-25
-3.21921e-25
-2.99209e-25
-2.74259e-25
-2.47232e-25
-2.18311e-25
-1.87703e-25
-1.55633e-25
-1.22344e-25
-8.80925e-26
-5.31444e-26
-1.77754e-26
)
;
    }
    outlet
    {
        type            cyclic;
        value           nonuniform List<scalar> 
120
(
1.07026e-27
3.21261e-27
5.3594e-27
7.48263e-27
9.61602e-27
1.17623e-26
1.39255e-26
1.60441e-26
1.81838e-26
2.04121e-26
2.26661e-26
2.49479e-26
2.73286e-26
2.9743e-26
3.21966e-26
3.46924e-26
3.72332e-26
3.98222e-26
4.24624e-26
4.51566e-26
4.79079e-26
5.07194e-26
5.35937e-26
5.65114e-26
5.97864e-26
6.31105e-26
6.65221e-26
6.98634e-26
7.32979e-26
7.68449e-26
8.02055e-26
8.33787e-26
8.66725e-26
9.00583e-26
9.35376e-26
9.7075e-26
1.00988e-25
1.05322e-25
1.09354e-25
1.13934e-25
1.17876e-25
1.22378e-25
1.26605e-25
1.30976e-25
1.35398e-25
1.40359e-25
1.4468e-25
1.49249e-25
1.53451e-25
1.58497e-25
1.63519e-25
1.68621e-25
1.73798e-25
1.79045e-25
1.84293e-25
1.89969e-25
1.95633e-25
2.01343e-25
2.07227e-25
2.12378e-25
2.17687e-25
2.23008e-25
2.28329e-25
2.33643e-25
2.39094e-25
2.43556e-25
2.4894e-25
2.54114e-25
2.59225e-25
2.64264e-25
2.69394e-25
2.73592e-25
2.77861e-25
2.82012e-25
2.86036e-25
2.89922e-25
2.93661e-25
2.97242e-25
3.00658e-25
3.03899e-25
3.06958e-25
3.09829e-25
3.12505e-25
3.1498e-25
3.17251e-25
3.19746e-25
3.20202e-25
3.20875e-25
3.21331e-25
3.21568e-25
3.21806e-25
3.30606e-25
3.44143e-25
3.57302e-25
3.69625e-25
3.80856e-25
3.90749e-25
3.99073e-25
4.05614e-25
4.10176e-25
4.12587e-25
4.12698e-25
4.10385e-25
4.05552e-25
3.98132e-25
3.88086e-25
3.75406e-25
3.60113e-25
3.42258e-25
3.21921e-25
2.99209e-25
2.74259e-25
2.47232e-25
2.18311e-25
1.87703e-25
1.55633e-25
1.22344e-25
8.80925e-26
5.31444e-26
1.77754e-26
)
;
    }
    top
    {
        type            fixedValue;
        value           uniform 0;
    }
    bottom
    {
        type            fixedValue;
        value           uniform 0;
    }
    frontAndBackPlanes
    {
        type            empty;
        value           nonuniform List<scalar> 0();
    }
}


// ************************************************************************* //
