/*--------------------------------*- C++ -*----------------------------------*\
| =========                 |                                                 |
| \\      /  F ield         | OpenFOAM: The Open Source CFD Toolbox           |
|  \\    /   O peration     | Version:  v2006                                 |
|   \\  /    A nd           | Website:  www.openfoam.com                      |
|    \\/     M anipulation  |                                                 |
\*---------------------------------------------------------------------------*/
FoamFile
{
    version     2.0;
    format      ascii;
    class       volTensorField;
    location    "1600";
    object      Taua;
}
// * * * * * * * * * * * * * * * * * * * * * * * * * * * * * * * * * * * * * //

dimensions      [1 -1 -2 0 0 0 0];


internalField   nonuniform List<tensor> 
120
(
(0.000146552 0 0 1.499e-14 -0.000293104 0 0 0 0.000146552)
(0.000147927 0 0 1.50115e-14 -0.000295854 0 0 0 0.000147927)
(0.000149786 0 0 1.49451e-14 -0.000299571 0 0 0 0.000149786)
(0.000151483 0 0 1.48987e-14 -0.000302965 0 0 0 0.000151483)
(0.000153168 0 0 1.49788e-14 -0.000306336 0 0 0 0.000153168)
(0.000154873 0 0 1.50789e-14 -0.000309745 0 0 0 0.000154873)
(0.000156585 0 0 1.49866e-14 -0.000313171 0 0 0 0.000156585)
(0.000158303 0 0 1.49145e-14 -0.000316607 0 0 0 0.000158303)
(0.000160027 0 0 1.5288e-14 -0.000320054 0 0 0 0.000160027)
(0.000161757 0 0 1.5682e-14 -0.000323514 0 0 0 0.000161757)
(0.000163492 0 0 1.58837e-14 -0.000326984 0 0 0 0.000163492)
(0.000165233 0 0 1.63187e-14 -0.000330466 0 0 0 0.000165233)
(0.000166979 0 0 1.67743e-14 -0.000333958 0 0 0 0.000166979)
(0.00016873 0 0 1.70381e-14 -0.00033746 0 0 0 0.00016873)
(0.000170486 0 0 1.73227e-14 -0.000340972 0 0 0 0.000170486)
(0.000172247 0 0 1.76282e-14 -0.000344493 0 0 0 0.000172247)
(0.000174012 0 0 1.79546e-14 -0.000348024 0 0 0 0.000174012)
(0.000175782 0 0 1.83019e-14 -0.000351564 0 0 0 0.000175782)
(0.000177557 0 0 1.86703e-14 -0.000355113 0 0 0 0.000177557)
(0.000179336 0 0 1.90595e-14 -0.000358671 0 0 0 0.000179336)
(0.000181119 0 0 1.94697e-14 -0.000362239 0 0 0 0.000181119)
(0.000182908 0 0 1.99007e-14 -0.000365816 0 0 0 0.000182908)
(0.000184702 0 0 2.03523e-14 -0.000369403 0 0 0 0.000184702)
(0.000186501 0 0 2.16742e-14 -0.000373002 0 0 0 0.000186501)
(0.000188307 0 0 2.30163e-14 -0.000376613 0 0 0 0.000188307)
(0.000190119 0 0 2.35285e-14 -0.000380238 0 0 0 0.000190119)
(0.00019194 0 0 2.36353e-14 -0.000383879 0 0 0 0.00019194)
(0.000193769 0 0 2.37612e-14 -0.000387539 0 0 0 0.000193769)
(0.00019561 0 0 2.43303e-14 -0.00039122 0 0 0 0.00019561)
(0.000197463 0 0 2.40677e-14 -0.000394926 0 0 0 0.000197463)
(0.000199331 0 0 2.2973e-14 -0.000398661 0 0 0 0.000199331)
(0.000201215 0 0 2.27438e-14 -0.00040243 0 0 0 0.000201215)
(0.000203119 0 0 2.33791e-14 -0.000406238 0 0 0 0.000203119)
(0.000205045 0 0 2.40284e-14 -0.000410091 0 0 0 0.000205045)
(0.000206997 0 0 2.46898e-14 -0.000413995 0 0 0 0.000206997)
(0.000208978 4.60169e-18 0 2.62116e-14 -0.000417956 0 0 0 0.000208978)
(0.000210992 0 0 2.85936e-14 -0.000421983 0 0 0 0.000210992)
(0.000213041 0 0 2.92861e-14 -0.000426081 0 0 0 0.000213041)
(0.000215129 0 0 2.9984e-14 -0.000430258 0 0 0 0.000215129)
(0.00021726 0 0 2.98378e-14 -0.000434519 0 0 0 0.00021726)
(0.000219435 0 0 2.96937e-14 -0.00043887 0 0 0 0.000219435)
(0.000221658 0 0 3.03982e-14 -0.000443315 0 0 0 0.000221658)
(0.000223928 0 0 3.02517e-14 -0.000447856 0 0 0 0.000223928)
(0.000226246 0 0 3.09483e-14 -0.000452493 0 0 0 0.000226246)
(0.000228611 0 0 3.24852e-14 -0.000457223 0 0 0 0.000228611)
(0.00023102 0 0 3.23152e-14 -0.00046204 0 0 0 0.00023102)
(0.000233467 0 0 3.12832e-14 -0.000466934 0 0 0 0.000233467)
(0.000235946 0 0 3.10824e-14 -0.000471892 0 0 0 0.000235946)
(0.000238448 0 0 3.25566e-14 -0.000476895 0 0 0 0.000238448)
(0.00024096 0 0 3.48548e-14 -0.00048192 0 0 0 0.00024096)
(0.000243469 0 0 3.54305e-14 -0.000486938 0 0 0 0.000243469)
(0.000245958 0 0 3.59753e-14 -0.000491917 0 0 0 0.000245958)
(0.000248409 0 0 3.64857e-14 -0.000496818 0 0 0 0.000248409)
(0.000250799 0 0 3.6958e-14 -0.000501598 0 0 0 0.000250799)
(0.000253106 0 0 3.82354e-14 -0.000506212 0 0 0 0.000253106)
(0.000255305 0 0 3.94676e-14 -0.00051061 0 0 0 0.000255305)
(0.00025737 0 0 3.98038e-14 -0.000514741 0 0 0 0.00025737)
(0.000259275 0 0 4.00887e-14 -0.000518551 0 0 0 0.000259275)
(0.000260994 -4.60169e-18 0 3.8625e-14 -0.000521988 0 0 0 0.000260994)
(0.000262501 0 0 3.70998e-14 -0.000525002 0 0 0 0.000262501)
(0.000263773 0 0 3.7205e-14 -0.000527546 0 0 0 0.000263773)
(0.000264788 0 0 3.72463e-14 -0.000529576 0 0 0 0.000264788)
(0.000265529 0 0 3.72198e-14 -0.000531058 0 0 0 0.000265529)
(0.000265982 0 0 3.7123e-14 -0.000531963 0 0 0 0.000265982)
(0.000266136 0 0 3.5263e-14 -0.000532273 0 0 0 0.000266136)
(0.000265989 0 0 3.50192e-14 -0.000531979 0 0 0 0.000265989)
(0.000265542 0 0 3.63903e-14 -0.000531083 0 0 0 0.000265542)
(0.0002648 0 0 3.59942e-14 -0.0005296 0 0 0 0.0002648)
(0.000263776 0 0 3.55204e-14 -0.000527552 0 0 0 0.000263776)
(0.000262487 0 0 3.49686e-14 -0.000524974 0 0 0 0.000262487)
(0.000260954 0 0 3.26506e-14 -0.000521909 0 0 0 0.000260954)
(0.000259201 0 0 3.02555e-14 -0.000518402 0 0 0 0.000259201)
(0.000257252 0 0 2.94726e-14 -0.000514504 0 0 0 0.000257252)
(0.000255131 0 0 2.86151e-14 -0.000510263 0 0 0 0.000255131)
(0.00025286 0 0 2.76853e-14 -0.000505721 0 0 0 0.00025286)
(0.000250457 0 0 2.66855e-14 -0.000500913 0 0 0 0.000250457)
(0.000247933 0 0 2.56187e-14 -0.000495866 0 0 0 0.000247933)
(0.000245296 0 0 2.44885e-14 -0.000490593 0 0 0 0.000245296)
(0.000242554 0 0 2.32985e-14 -0.000485109 0 0 0 0.000242554)
(0.000239774 0 0 2.20529e-14 -0.000479549 0 0 0 0.000239774)
(0.000237055 0 0 2.07562e-14 -0.000474111 0 0 0 0.000237055)
(0.00023391 0 0 1.94128e-14 -0.00046782 0 0 0 0.00023391)
(0.000229391 0 0 1.80276e-14 -0.000458781 0 0 0 0.000229391)
(0.000230098 0 0 1.66053e-14 -0.000460197 0 0 0 0.000230098)
(0.000253255 0 0 1.51506e-14 -0.00050651 0 0 0 0.000253255)
(0.000227689 0 0 1.03284e-14 -0.000455377 0 0 0 0.000227689)
(-0.000101401 0 0 5.48324e-15 0.000202802 0 0 0 -0.000101401)
(1.76813e-05 0 0 3.95937e-15 -3.53627e-05 0 0 0 1.76813e-05)
(0.00426485 0 0 2.42079e-15 -0.00852969 0 0 0 0.00426485)
(0.01024 0 0 1.14402e-15 -0.02048 0 0 0 0.01024)
(8.13185e-06 0 0 1.22177e-20 -1.62637e-05 0 0 0 8.13185e-06)
(3.77837e-07 0 0 6.43842e-22 -7.55673e-07 0 0 0 3.77837e-07)
(4.98507e-10 0 0 1.0075e-24 -9.97014e-10 0 0 0 4.98507e-10)
(1.05369e-18 0 0 2.77501e-33 -2.10739e-18 0 0 0 1.05369e-18)
(5.07763e-28 0 0 3.29066e-42 -1.01553e-27 0 0 0 5.07763e-28)
(-3.32427e-39 0 0 3.78e-51 6.64855e-39 0 0 0 -3.32427e-39)
(-9.07737e-49 0 0 4.54838e-60 1.81547e-48 0 0 0 -9.07737e-49)
(9.60879e-58 0 0 5.67064e-69 -1.92176e-57 0 0 0 9.60879e-58)
(3.09545e-67 0 0 8.12307e-78 -6.19091e-67 0 0 0 3.09545e-67)
(-2.94261e-76 0 0 1.23677e-86 5.88522e-76 0 0 0 -2.94261e-76)
(-2.3633e-85 0 0 1.43618e-95 4.7266e-85 0 0 0 -2.3633e-85)
(2.46128e-94 0 0 -4.72865e-104 -4.92257e-94 0 0 0 2.46128e-94)
(3.60506e-103 0 0 -6.64017e-112 -7.21011e-103 0 0 0 3.60506e-103)
(-3.08424e-112 0 0 -5.05724e-120 6.16849e-112 0 0 0 -3.08424e-112)
(-6.82239e-121 0 0 -3.38646e-128 1.36448e-120 0 0 0 -6.82239e-121)
(3.57817e-130 0 0 -2.05947e-136 -7.15635e-130 0 0 0 3.57817e-130)
(1.18574e-138 0 0 -1.23276e-144 -2.37148e-138 0 0 0 1.18574e-138)
(-7.21829e-148 0 0 -6.86434e-153 1.44366e-147 0 0 0 -7.21829e-148)
(-1.96385e-156 0 0 -3.71743e-161 3.9277e-156 0 0 0 -1.96385e-156)
(1.01903e-164 0 0 -1.85894e-169 -2.03806e-164 0 0 0 1.01903e-164)
(6.79181e-173 0 0 -9.04826e-178 -1.35836e-172 0 0 0 6.79181e-173)
(2.17704e-181 0 0 -4.13798e-186 -4.35408e-181 0 0 0 2.17704e-181)
(1.75005e-190 0 0 -1.95885e-194 -3.5001e-190 0 0 0 1.75005e-190)
(-2.76796e-196 0 0 -9.70247e-203 5.53591e-196 0 0 0 -2.76796e-196)
(-2.52122e-204 0 0 -5.46108e-211 5.04244e-204 0 0 0 -2.52122e-204)
(-2.65263e-211 0 0 -3.26238e-219 5.30527e-211 0 0 0 -2.65263e-211)
(-8.54351e-217 0 0 -2.07148e-227 1.7087e-216 0 0 0 -8.54351e-217)
(-1.20481e-224 0 0 -1.27733e-235 2.40961e-224 0 0 0 -1.20481e-224)
(-5.21137e-232 0 0 -7.75001e-244 1.04227e-231 0 0 0 -5.21137e-232)
(-2.77535e-237 0 0 -4.31107e-252 5.55071e-237 0 0 0 -2.77535e-237)
)
;

boundaryField
{
    inlet
    {
        type            cyclic;
    }
    outlet
    {
        type            cyclic;
    }
    top
    {
        type            extrapolatedCalculated;
        value           uniform (-5.54541e-237 0 0 -4.32201e-252 1.10908e-236 0 0 0 -5.54541e-237);
    }
    bottom
    {
        type            extrapolatedCalculated;
        value           uniform (0.000146176 0 0 1.49836e-14 -0.000292352 0 0 0 0.000146176);
    }
    frontAndBackPlanes
    {
        type            empty;
    }
}


// ************************************************************************* //
