/*--------------------------------*- C++ -*----------------------------------*\
| =========                 |                                                 |
| \\      /  F ield         | OpenFOAM: The Open Source CFD Toolbox           |
|  \\    /   O peration     | Version:  v2006                                 |
|   \\  /    A nd           | Website:  www.openfoam.com                      |
|    \\/     M anipulation  |                                                 |
\*---------------------------------------------------------------------------*/
FoamFile
{
    version     2.0;
    format      ascii;
    class       volTensorField;
    location    "1600";
    object      Taub;
}
// * * * * * * * * * * * * * * * * * * * * * * * * * * * * * * * * * * * * * //

dimensions      [1 -1 -2 0 0 0 0];


internalField   nonuniform List<tensor> 
120
(
(-1.05045e-08 0 0 7.13773e-19 2.1009e-08 0 0 0 -1.05045e-08)
(-1.05799e-08 0 0 7.14785e-19 2.11598e-08 0 0 0 -1.05799e-08)
(-1.06876e-08 0 0 7.11565e-19 2.13751e-08 0 0 0 -1.06876e-08)
(-1.08061e-08 0 0 7.09298e-19 2.16122e-08 0 0 0 -1.08061e-08)
(-1.0923e-08 0 0 7.13101e-19 2.1846e-08 0 0 0 -1.0923e-08)
(-1.10396e-08 0 0 7.18042e-19 2.20793e-08 0 0 0 -1.10396e-08)
(-1.11564e-08 0 0 7.13401e-19 2.23129e-08 0 0 0 -1.11564e-08)
(-1.12736e-08 0 0 7.09437e-19 2.25471e-08 0 0 0 -1.12736e-08)
(-1.13909e-08 0 0 7.27677e-19 2.27819e-08 0 0 0 -1.13909e-08)
(-1.15085e-08 0 0 7.46678e-19 2.3017e-08 0 0 0 -1.15085e-08)
(-1.16263e-08 0 0 7.55543e-19 2.32525e-08 0 0 0 -1.16263e-08)
(-1.17442e-08 0 0 7.76616e-19 2.34884e-08 0 0 0 -1.17442e-08)
(-1.18623e-08 0 0 7.98672e-19 2.37246e-08 0 0 0 -1.18623e-08)
(-1.19805e-08 0 0 8.10768e-19 2.39611e-08 0 0 0 -1.19805e-08)
(-1.20989e-08 0 0 8.24263e-19 2.41979e-08 0 0 0 -1.20989e-08)
(-1.22175e-08 0 0 8.38751e-19 2.4435e-08 0 0 0 -1.22175e-08)
(-1.23361e-08 0 0 8.54233e-19 2.46723e-08 0 0 0 -1.23361e-08)
(-1.24549e-08 0 0 8.70711e-19 2.49097e-08 0 0 0 -1.24549e-08)
(-1.25736e-08 0 0 8.88183e-19 2.51472e-08 0 0 0 -1.25736e-08)
(-1.26924e-08 0 0 9.06649e-19 2.53848e-08 0 0 0 -1.26924e-08)
(-1.28112e-08 0 0 9.26106e-19 2.56225e-08 0 0 0 -1.28112e-08)
(-1.29302e-08 0 0 9.46533e-19 2.58603e-08 0 0 0 -1.29302e-08)
(-1.30492e-08 0 0 9.64165e-19 2.60984e-08 0 0 0 -1.30492e-08)
(-1.31684e-08 0 0 1.03078e-18 2.63368e-08 0 0 0 -1.31684e-08)
(-1.32878e-08 0 0 1.09835e-18 2.65755e-08 0 0 0 -1.32878e-08)
(-1.34073e-08 0 0 1.12103e-18 2.68145e-08 0 0 0 -1.34073e-08)
(-1.35269e-08 0 0 1.12383e-18 2.70539e-08 0 0 0 -1.35269e-08)
(-1.36469e-08 0 0 1.12757e-18 2.72938e-08 0 0 0 -1.36469e-08)
(-1.37673e-08 0 0 1.16171e-18 2.75345e-08 0 0 0 -1.37673e-08)
(-1.38882e-08 0 0 1.14934e-18 2.77763e-08 0 0 0 -1.38882e-08)
(-1.40098e-08 0 0 1.08706e-18 2.80195e-08 0 0 0 -1.40098e-08)
(-1.41322e-08 0 0 1.07587e-18 2.82644e-08 0 0 0 -1.41322e-08)
(-1.42557e-08 0 0 1.11116e-18 2.85114e-08 0 0 0 -1.42557e-08)
(-1.43802e-08 0 0 1.14194e-18 2.87605e-08 0 0 0 -1.43802e-08)
(-1.45061e-08 0 0 1.16707e-18 2.90121e-08 0 0 0 -1.45061e-08)
(-1.46334e-08 -2.18665e-22 0 1.23914e-18 2.92668e-08 0 0 0 -1.46334e-08)
(-1.47625e-08 0 0 1.37144e-18 2.95251e-08 0 0 0 -1.47625e-08)
(-1.48937e-08 0 0 1.39107e-18 2.97873e-08 0 0 0 -1.48937e-08)
(-1.5027e-08 0 0 1.43196e-18 3.00541e-08 0 0 0 -1.5027e-08)
(-1.51629e-08 0 0 1.41697e-18 3.03258e-08 0 0 0 -1.51629e-08)
(-1.53013e-08 0 0 1.40384e-18 3.06026e-08 0 0 0 -1.53013e-08)
(-1.54423e-08 0 0 1.451e-18 3.08846e-08 0 0 0 -1.54423e-08)
(-1.55858e-08 0 0 1.42918e-18 3.11716e-08 0 0 0 -1.55858e-08)
(-1.57319e-08 0 0 1.4615e-18 3.14638e-08 0 0 0 -1.57319e-08)
(-1.58804e-08 0 0 1.55934e-18 3.17608e-08 0 0 0 -1.58804e-08)
(-1.60311e-08 0 0 1.54251e-18 3.20622e-08 0 0 0 -1.60311e-08)
(-1.61837e-08 0 0 1.47715e-18 3.23674e-08 0 0 0 -1.61837e-08)
(-1.63376e-08 0 0 1.45714e-18 3.26752e-08 0 0 0 -1.63376e-08)
(-1.64921e-08 0 0 1.53641e-18 3.29842e-08 0 0 0 -1.64921e-08)
(-1.66461e-08 0 0 1.67242e-18 3.32922e-08 0 0 0 -1.66461e-08)
(-1.67986e-08 0 0 1.68144e-18 3.35972e-08 0 0 0 -1.67986e-08)
(-1.69484e-08 0 0 1.70703e-18 3.38968e-08 0 0 0 -1.69484e-08)
(-1.70941e-08 0 0 1.73101e-18 3.41882e-08 0 0 0 -1.70941e-08)
(-1.72342e-08 0 0 1.74268e-18 3.44684e-08 0 0 0 -1.72342e-08)
(-1.7367e-08 0 0 1.81367e-18 3.47341e-08 0 0 0 -1.7367e-08)
(-1.74909e-08 0 0 1.88249e-18 3.49818e-08 0 0 0 -1.74909e-08)
(-1.76038e-08 0 0 1.88777e-18 3.52076e-08 0 0 0 -1.76038e-08)
(-1.77037e-08 0 0 1.92413e-18 3.54074e-08 0 0 0 -1.77037e-08)
(-1.77886e-08 4.36341e-22 0 1.83125e-18 3.55771e-08 0 0 0 -1.77886e-08)
(-1.78566e-08 0 0 1.73547e-18 3.57133e-08 0 0 0 -1.78566e-08)
(-1.79062e-08 0 0 1.76335e-18 3.58124e-08 0 0 0 -1.79062e-08)
(-1.79357e-08 0 0 1.76516e-18 3.58714e-08 0 0 0 -1.79357e-08)
(-1.79438e-08 0 0 1.76376e-18 3.58876e-08 0 0 0 -1.79438e-08)
(-1.79295e-08 0 0 1.78504e-18 3.58589e-08 0 0 0 -1.79295e-08)
(-1.78917e-08 0 0 1.64352e-18 3.57835e-08 0 0 0 -1.78917e-08)
(-1.78299e-08 0 0 1.63223e-18 3.56598e-08 0 0 0 -1.78299e-08)
(-1.77436e-08 0 0 1.75e-18 3.54873e-08 0 0 0 -1.77436e-08)
(-1.76332e-08 0 0 1.7043e-18 3.52664e-08 0 0 0 -1.76332e-08)
(-1.74991e-08 0 0 1.68157e-18 3.49981e-08 0 0 0 -1.74991e-08)
(-1.73419e-08 0 0 1.68445e-18 3.46838e-08 0 0 0 -1.73419e-08)
(-1.71625e-08 0 0 1.54498e-18 3.43251e-08 0 0 0 -1.71625e-08)
(-1.69619e-08 0 0 1.4019e-18 3.39239e-08 0 0 0 -1.69619e-08)
(-1.67407e-08 0 0 1.39386e-18 3.34815e-08 0 0 0 -1.67407e-08)
(-1.64992e-08 0 0 1.35312e-18 3.29983e-08 0 0 0 -1.64992e-08)
(-1.62371e-08 0 0 1.30882e-18 3.24742e-08 0 0 0 -1.62371e-08)
(-1.59539e-08 0 0 1.26122e-18 3.19078e-08 0 0 0 -1.59539e-08)
(-1.56481e-08 0 0 1.21047e-18 3.12963e-08 0 0 0 -1.56481e-08)
(-1.53175e-08 0 0 1.15671e-18 3.06351e-08 0 0 0 -1.53175e-08)
(-1.49589e-08 0 0 1.10015e-18 2.99179e-08 0 0 0 -1.49589e-08)
(-1.45659e-08 0 0 1.04096e-18 2.91317e-08 0 0 0 -1.45659e-08)
(-1.41299e-08 0 0 9.79377e-19 2.82597e-08 0 0 0 -1.41299e-08)
(-1.36691e-08 0 0 9.15605e-19 2.73381e-08 0 0 0 -1.36691e-08)
(-1.32205e-08 0 0 8.49873e-19 2.6441e-08 0 0 0 -1.32205e-08)
(-1.24627e-08 0 0 7.82748e-19 2.49254e-08 0 0 0 -1.24627e-08)
(-1.05508e-08 0 0 7.85553e-19 2.11015e-08 0 0 0 -1.05508e-08)
(-1.06429e-08 0 0 4.86018e-19 2.12857e-08 0 0 0 -1.06429e-08)
(-2.48066e-08 0 0 1.85789e-19 4.96132e-08 0 0 0 -2.48066e-08)
(-1.83601e-08 0 0 1.85604e-19 3.67202e-08 0 0 0 -1.83601e-08)
(4.5153e-07 0 0 1.13677e-19 -9.0306e-07 0 0 0 4.5153e-07)
(-5.62746e-07 0 0 7.76343e-20 1.12549e-06 0 0 0 -5.62746e-07)
(2.35782e-05 0 0 1.18527e-18 -4.71564e-05 0 0 0 2.35782e-05)
(-2.43087e-05 0 0 1.51943e-18 4.86174e-05 0 0 0 -2.43087e-05)
(-1.39408e-05 0 0 1.77956e-18 2.78815e-05 0 0 0 -1.39408e-05)
(2.61683e-05 0 0 1.69861e-18 -5.23365e-05 0 0 0 2.61683e-05)
(2.27415e-06 0 0 1.5701e-18 -4.54831e-06 0 0 0 2.27415e-06)
(-1.99561e-06 0 0 1.4081e-18 3.99121e-06 0 0 0 -1.99561e-06)
(-2.65424e-07 0 0 1.21433e-18 5.30848e-07 0 0 0 -2.65424e-07)
(1.48339e-07 0 0 9.9086e-19 -2.96677e-07 0 0 0 1.48339e-07)
(2.75168e-08 0 0 7.40105e-19 -5.50335e-08 0 0 0 2.75168e-08)
(-1.06964e-08 0 0 4.64826e-19 2.13929e-08 0 0 0 -1.06964e-08)
(-2.69949e-09 0 0 1.68081e-19 5.39897e-09 0 0 0 -2.69949e-09)
(7.37431e-10 0 0 -1.46816e-19 -1.47486e-09 0 0 0 7.37431e-10)
(2.51992e-10 0 0 -4.76331e-19 -5.03983e-10 0 0 0 2.51992e-10)
(-4.79401e-11 0 0 -8.16751e-19 9.58802e-11 0 0 0 -4.79401e-11)
(-2.28307e-11 0 0 -1.16424e-18 4.56614e-11 0 0 0 -2.28307e-11)
(2.51162e-12 0 0 -1.51485e-18 -5.02325e-12 0 0 0 2.51162e-12)
(1.7381e-12 0 0 -1.86464e-18 -3.4762e-12 0 0 0 1.7381e-12)
(-2.25185e-13 0 0 -2.20961e-18 4.5037e-13 0 0 0 -2.25185e-13)
(-1.29823e-13 0 0 -2.54586e-18 2.59645e-13 0 0 0 -1.29823e-13)
(1.56054e-13 0 0 -2.86956e-18 -3.12108e-13 0 0 0 1.56054e-13)
(2.3691e-13 0 0 -3.17703e-18 -4.73821e-13 0 0 0 2.3691e-13)
(1.81988e-13 0 0 -3.46475e-18 -3.63975e-13 0 0 0 1.81988e-13)
(6.6131e-14 0 0 -3.72944e-18 -1.32262e-13 0 0 0 6.6131e-14)
(-2.12895e-15 0 0 -3.96809e-18 4.25789e-15 0 0 0 -2.12895e-15)
(3.05153e-14 0 0 -4.17797e-18 -6.10306e-14 0 0 0 3.05153e-14)
(1.38416e-13 0 0 -4.35667e-18 -2.76832e-13 0 0 0 1.38416e-13)
(1.99661e-13 0 0 -4.50216e-18 -3.99323e-13 0 0 0 1.99661e-13)
(-1.61251e-13 0 0 -4.61276e-18 3.22502e-13 0 0 0 -1.61251e-13)
(-2.5081e-13 0 0 -4.68722e-18 5.0162e-13 0 0 0 -2.5081e-13)
(6.23465e-12 0 0 -4.7274e-18 -1.24693e-11 0 0 0 6.23465e-12)
)
;

boundaryField
{
    inlet
    {
        type            cyclic;
    }
    outlet
    {
        type            cyclic;
    }
    top
    {
        type            extrapolatedCalculated;
        value           uniform (1.24528e-11 0 0 -4.73953e-18 -2.49055e-11 0 0 0 1.24528e-11);
    }
    bottom
    {
        type            extrapolatedCalculated;
        value           uniform (-1.04766e-08 0 0 7.13466e-19 2.09532e-08 0 0 0 -1.04766e-08);
    }
    frontAndBackPlanes
    {
        type            empty;
    }
}


// ************************************************************************* //
