/*--------------------------------*- C++ -*----------------------------------*\
| =========                 |                                                 |
| \\      /  F ield         | OpenFOAM: The Open Source CFD Toolbox           |
|  \\    /   O peration     | Version:  v2006                                 |
|   \\  /    A nd           | Website:  www.openfoam.com                      |
|    \\/     M anipulation  |                                                 |
\*---------------------------------------------------------------------------*/
FoamFile
{
    version     2.0;
    format      ascii;
    class       volVectorField;
    location    "1600";
    object      Ua;
}
// * * * * * * * * * * * * * * * * * * * * * * * * * * * * * * * * * * * * * //

dimensions      [0 1 -1 0 0 0 0];


internalField   nonuniform List<vector> 
120
(
(3.56752e-21 -1.04411e-10 0)
(1.07087e-20 -3.14309e-10 0)
(1.78642e-20 -5.27059e-10 0)
(2.49421e-20 -7.42268e-10 0)
(3.20534e-20 -9.59866e-10 0)
(3.92076e-20 -1.17989e-09 0)
(4.64143e-20 -1.40236e-09 0)
(5.34805e-20 -1.62728e-09 0)
(6.06185e-20 -1.85465e-09 0)
(6.80405e-20 -2.0845e-09 0)
(7.55537e-20 -2.31682e-09 0)
(8.31679e-20 -2.55162e-09 0)
(9.10953e-20 -2.78891e-09 0)
(9.91434e-20 -3.0287e-09 0)
(1.07322e-19 -3.27099e-09 0)
(1.15641e-19 -3.5158e-09 0)
(1.24111e-19 -3.76313e-09 0)
(1.32741e-19 -4.01298e-09 0)
(1.41541e-19 -4.26536e-09 0)
(1.50522e-19 -4.52028e-09 0)
(1.59693e-19 -4.77775e-09 0)
(1.69065e-19 -5.03777e-09 0)
(1.78646e-19 -5.30034e-09 0)
(1.88448e-19 -5.56549e-09 0)
(1.99288e-19 -5.8332e-09 0)
(2.10368e-19 -6.1035e-09 0)
(2.21696e-19 -6.3764e-09 0)
(2.32878e-19 -6.6519e-09 0)
(2.44326e-19 -6.93003e-09 0)
(2.56049e-19 -7.21079e-09 0)
(2.67248e-19 -7.49421e-09 0)
(2.77928e-19 -7.7803e-09 0)
(2.88908e-19 -8.06911e-09 0)
(3.00194e-19 -8.36064e-09 0)
(3.11792e-19 -8.65495e-09 0)
(3.23708e-19 -8.95206e-09 0)
(3.36756e-19 -9.25203e-09 0)
(3.5094e-19 -9.5549e-09 0)
(3.64647e-19 -9.86072e-09 0)
(3.79496e-19 -1.01696e-08 0)
(3.93064e-19 -1.04815e-08 0)
(4.07776e-19 -1.07965e-08 0)
(4.22015e-19 -1.11148e-08 0)
(4.36587e-19 -1.14363e-08 0)
(4.5149e-19 -1.17612e-08 0)
(4.67525e-19 -1.20895e-08 0)
(4.82266e-19 -1.24212e-08 0)
(4.97319e-19 -1.27565e-08 0)
(5.11868e-19 -1.30954e-08 0)
(5.28325e-19 -1.34378e-08 0)
(5.45063e-19 -1.37838e-08 0)
(5.62069e-19 -1.41334e-08 0)
(5.79325e-19 -1.44866e-08 0)
(5.96817e-19 -1.48432e-08 0)
(6.14523e-19 -1.52031e-08 0)
(6.33231e-19 -1.55663e-08 0)
(6.52112e-19 -1.59326e-08 0)
(6.7114e-19 -1.63017e-08 0)
(6.90291e-19 -1.66734e-08 0)
(7.07926e-19 -1.70474e-08 0)
(7.25624e-19 -1.74234e-08 0)
(7.43359e-19 -1.7801e-08 0)
(7.61097e-19 -1.81799e-08 0)
(7.78806e-19 -1.85597e-08 0)
(7.96452e-19 -1.89398e-08 0)
(8.1239e-19 -1.932e-08 0)
(8.29804e-19 -1.96998e-08 0)
(8.47047e-19 -2.00787e-08 0)
(8.64084e-19 -2.04564e-08 0)
(8.80876e-19 -2.08324e-08 0)
(8.97387e-19 -2.12064e-08 0)
(9.11972e-19 -2.1578e-08 0)
(9.26202e-19 -2.19469e-08 0)
(9.40041e-19 -2.2313e-08 0)
(9.53455e-19 -2.26759e-08 0)
(9.66408e-19 -2.30354e-08 0)
(9.78869e-19 -2.33915e-08 0)
(9.90807e-19 -2.37438e-08 0)
(1.00219e-18 -2.40923e-08 0)
(1.013e-18 -2.44368e-08 0)
(1.02319e-18 -2.47774e-08 0)
(1.03276e-18 -2.51141e-08 0)
(1.04168e-18 -2.54457e-08 0)
(1.04993e-18 -2.57695e-08 0)
(1.0575e-18 -2.61031e-08 0)
(1.06436e-18 -2.64931e-08 0)
(1.06733e-18 -2.67537e-08 0)
(1.06958e-18 -2.62034e-08 0)
(1.0711e-18 -2.68042e-08 0)
(1.07189e-18 -3.83887e-08 0)
(1.07219e-18 -5.60613e-08 0)
(1.10196e-18 -6.00785e-05 0)
(1.14705e-18 -0.000131836 0)
(1.19098e-18 -0.000192217 0)
(1.23209e-18 -0.000228708 0)
(1.26953e-18 -0.000228579 0)
(1.3025e-18 -0.000228522 0)
(1.33025e-18 -0.000228542 0)
(1.35205e-18 -0.000228548 0)
(1.36726e-18 -0.000228546 0)
(1.37529e-18 -0.000228546 0)
(1.37566e-18 -0.000228546 0)
(1.36795e-18 -0.000228546 0)
(1.35184e-18 -0.000228546 0)
(1.32711e-18 -0.000228546 0)
(1.29362e-18 -0.000228546 0)
(1.25135e-18 -0.000228546 0)
(1.20037e-18 -0.000228546 0)
(1.14086e-18 -0.000228546 0)
(1.07306e-18 -0.000228546 0)
(9.97358e-19 -0.000228546 0)
(9.14185e-19 -0.000228546 0)
(8.24102e-19 -0.000228546 0)
(7.27693e-19 -0.000228546 0)
(6.25666e-19 -0.000228546 0)
(5.18767e-19 -0.000228546 0)
(4.07803e-19 -0.000228546 0)
(2.9363e-19 -0.000228518 0)
(1.77135e-19 -0.000228481 0)
(5.92451e-20 -0.000228045 0)
)
;

boundaryField
{
    inlet
    {
        type            cyclic;
    }
    outlet
    {
        type            cyclic;
    }
    top
    {
        type            fixedValue;
        value           uniform (0 0 0);
    }
    bottom
    {
        type            fixedValue;
        value           uniform (0 0 0);
    }
    frontAndBackPlanes
    {
        type            empty;
    }
}


// ************************************************************************* //
