/*--------------------------------*- C++ -*----------------------------------*\
| =========                 |                                                 |
| \\      /  F ield         | OpenFOAM: The Open Source CFD Toolbox           |
|  \\    /   O peration     | Version:  v2006                                 |
|   \\  /    A nd           | Website:  www.openfoam.com                      |
|    \\/     M anipulation  |                                                 |
\*---------------------------------------------------------------------------*/
FoamFile
{
    version     2.0;
    format      ascii;
    class       volVectorField;
    location    "1600";
    object      Ub;
}
// * * * * * * * * * * * * * * * * * * * * * * * * * * * * * * * * * * * * * //

dimensions      [0 1 -1 0 0 0 0];


internalField   nonuniform List<vector> 
120
(
(3.56752e-21 1.57157e-10 0)
(1.07087e-20 4.73146e-10 0)
(1.78647e-20 7.92015e-10 0)
(2.49421e-20 1.11449e-09 0)
(3.20534e-20 1.44051e-09 0)
(3.92076e-20 1.77004e-09 0)
(4.64184e-20 2.10308e-09 0)
(5.34805e-20 2.43965e-09 0)
(6.06127e-20 2.77976e-09 0)
(6.80405e-20 3.12341e-09 0)
(7.55537e-20 3.47061e-09 0)
(8.31596e-20 3.82137e-09 0)
(9.10953e-20 4.17568e-09 0)
(9.91434e-20 4.53357e-09 0)
(1.07322e-19 4.89502e-09 0)
(1.15641e-19 5.26006e-09 0)
(1.24111e-19 5.62867e-09 0)
(1.32741e-19 6.00087e-09 0)
(1.41541e-19 6.37666e-09 0)
(1.50522e-19 6.75603e-09 0)
(1.59693e-19 7.13899e-09 0)
(1.69065e-19 7.52555e-09 0)
(1.78646e-19 7.91571e-09 0)
(1.88371e-19 8.30946e-09 0)
(1.99288e-19 8.70683e-09 0)
(2.10368e-19 9.10781e-09 0)
(2.2174e-19 9.5124e-09 0)
(2.32878e-19 9.92062e-09 0)
(2.44326e-19 1.03325e-08 0)
(2.5615e-19 1.0748e-08 0)
(2.67352e-19 1.11672e-08 0)
(2.77929e-19 1.159e-08 0)
(2.88908e-19 1.20167e-08 0)
(3.00194e-19 1.2447e-08 0)
(3.11792e-19 1.28812e-08 0)
(3.23583e-19 1.33191e-08 0)
(3.36627e-19 1.3761e-08 0)
(3.51072e-19 1.42068e-08 0)
(3.64512e-19 1.46567e-08 0)
(3.79779e-19 1.51106e-08 0)
(3.9292e-19 1.55687e-08 0)
(4.07926e-19 1.6031e-08 0)
(4.22016e-19 1.64976e-08 0)
(4.36586e-19 1.69686e-08 0)
(4.51327e-19 1.74441e-08 0)
(4.67863e-19 1.79242e-08 0)
(4.82268e-19 1.84089e-08 0)
(4.97496e-19 1.88982e-08 0)
(5.11503e-19 1.93922e-08 0)
(5.28324e-19 1.98909e-08 0)
(5.45063e-19 2.03943e-08 0)
(5.62069e-19 2.09023e-08 0)
(5.79325e-19 2.14148e-08 0)
(5.96816e-19 2.19317e-08 0)
(6.14311e-19 2.24528e-08 0)
(6.3323e-19 2.29778e-08 0)
(6.52112e-19 2.35065e-08 0)
(6.71142e-19 2.40384e-08 0)
(6.90758e-19 2.45732e-08 0)
(7.07928e-19 2.51104e-08 0)
(7.25624e-19 2.56494e-08 0)
(7.43359e-19 2.61898e-08 0)
(7.61097e-19 2.67307e-08 0)
(7.78809e-19 2.72717e-08 0)
(7.9698e-19 2.7812e-08 0)
(8.11852e-19 2.83509e-08 0)
(8.29801e-19 2.88876e-08 0)
(8.47047e-19 2.94214e-08 0)
(8.64084e-19 2.99517e-08 0)
(8.80879e-19 3.04776e-08 0)
(8.9798e-19 3.09986e-08 0)
(9.11975e-19 3.15139e-08 0)
(9.26202e-19 3.2023e-08 0)
(9.40041e-19 3.25252e-08 0)
(9.53455e-19 3.30199e-08 0)
(9.66408e-19 3.35065e-08 0)
(9.78869e-19 3.39844e-08 0)
(9.90807e-19 3.44527e-08 0)
(1.00219e-18 3.49109e-08 0)
(1.013e-18 3.53579e-08 0)
(1.02319e-18 3.57925e-08 0)
(1.03276e-18 3.62135e-08 0)
(1.04168e-18 3.66206e-08 0)
(1.04993e-18 3.70147e-08 0)
(1.0575e-18 3.73763e-08 0)
(1.06582e-18 3.76549e-08 0)
(1.06734e-18 3.80225e-08 0)
(1.06958e-18 3.91624e-08 0)
(1.0711e-18 3.91395e-08 0)
(1.07189e-18 1.16496e-08 0)
(1.07269e-18 7.35322e-08 0)
(1.10202e-18 -1.78621e-06 0)
(1.14714e-18 3.64711e-06 0)
(1.19101e-18 3.05105e-07 0)
(1.23208e-18 -2.78625e-07 0)
(1.26952e-18 -3.60604e-08 0)
(1.3025e-18 2.07532e-08 0)
(1.33024e-18 3.75819e-09 0)
(1.35205e-18 -1.50037e-09 0)
(1.36725e-18 -3.69845e-10 0)
(1.37529e-18 1.04295e-10 0)
(1.37566e-18 3.51291e-11 0)
(1.36795e-18 -6.33366e-12 0)
(1.35184e-18 -2.67436e-12 0)
(1.32711e-18 8.58254e-13 0)
(1.29362e-18 7.50675e-13 0)
(1.25135e-18 4.81463e-13 0)
(1.20038e-18 4.89927e-13 0)
(1.14086e-18 5.15245e-13 0)
(1.07307e-18 5.09403e-13 0)
(9.97364e-19 4.91834e-13 0)
(9.14198e-19 4.73862e-13 0)
(8.24105e-19 4.64533e-13 0)
(7.27702e-19 4.63941e-13 0)
(6.25676e-19 4.64852e-13 0)
(5.18778e-19 4.59363e-13 0)
(4.07815e-19 4.44087e-13 0)
(2.93642e-19 4.29411e-13 0)
(1.77148e-19 4.68278e-13 0)
(5.92515e-20 4.67037e-13 0)
)
;

boundaryField
{
    inlet
    {
        type            cyclic;
    }
    outlet
    {
        type            cyclic;
    }
    top
    {
        type            fixedValue;
        value           uniform (0 0 0);
    }
    bottom
    {
        type            fixedValue;
        value           uniform (0 0 0);
    }
    frontAndBackPlanes
    {
        type            empty;
    }
}


// ************************************************************************* //
