/*--------------------------------*- C++ -*----------------------------------*\
| =========                 |                                                 |
| \\      /  F ield         | OpenFOAM: The Open Source CFD Toolbox           |
|  \\    /   O peration     | Version:  2206                                  |
|   \\  /    A nd           | Website:  www.openfoam.com                      |
|    \\/     M anipulation  |                                                 |
\*---------------------------------------------------------------------------*/
FoamFile
{
    version     2.0;
    format      ascii;
    arch        "LSB;label=32;scalar=64";
    class       volScalarField;
    location    "250";
    object      alpha.a;
}
// * * * * * * * * * * * * * * * * * * * * * * * * * * * * * * * * * * * * * //

dimensions      [0 0 0 0 0 0 0];

internalField   nonuniform List<scalar> 
200
(
0.599488
0.599418
0.599407
0.59934
0.599315
0.599257
0.599224
0.599171
0.599133
0.59908
0.599041
0.598987
0.598947
0.598892
0.598851
0.598794
0.598753
0.598694
0.598652
0.598592
0.598548
0.598488
0.598442
0.598381
0.598333
0.598271
0.598221
0.598158
0.598106
0.598041
0.597988
0.597922
0.597866
0.597799
0.597741
0.597672
0.597611
0.597541
0.597478
0.597406
0.597341
0.597266
0.597198
0.597122
0.597051
0.596972
0.596898
0.596816
0.59674
0.596655
0.596576
0.596487
0.596405
0.596313
0.596226
0.59613
0.59604
0.59594
0.595845
0.59574
0.595641
0.595531
0.595426
0.59531
0.5952
0.595078
0.594961
0.594831
0.594708
0.59457
0.594438
0.594291
0.594151
0.593993
0.593842
0.593672
0.593509
0.593325
0.593147
0.592947
0.592752
0.592531
0.592316
0.59207
0.591829
0.591553
0.591279
0.590962
0.590645
0.590275
0.589899
0.589451
0.588987
0.588421
0.587814
0.587042
0.586176
0.584962
0.583098
0.339217
0.000341003
1.21881e-06
1.01239e-11
1.03078e-22
7.12719e-34
2.84202e-45
3.33735e-57
8.96343e-69
3.6068e-80
1.53785e-91
5.66136e-103
1.18032e-114
7.7866e-127
2.18361e-138
9.99759e-150
5.17361e-161
2.21501e-172
4.93655e-184
7.98298e-196
4.05623e-207
3.17833e-218
2.5288e-229
1.16377e-233
5.21262e-234
2.36095e-234
1.14127e-234
5.56845e-235
2.74133e-235
1.35777e-235
6.7351e-236
3.32513e-236
1.61602e-236
7.51053e-237
3.19693e-237
1.49469e-237
7.0494e-238
3.13365e-238
1.5302e-238
7.52731e-239
3.71473e-239
1.82732e-239
8.86142e-240
4.19278e-240
1.94289e-240
9.00682e-241
4.20934e-241
1.81275e-241
7.9074e-242
3.75758e-242
1.64754e-242
7.74671e-243
3.65786e-243
1.73933e-243
7.79801e-244
3.50663e-244
1.57364e-244
7.50156e-245
3.54887e-245
1.56678e-245
6.94598e-246
3.30376e-246
1.49443e-246
7.26669e-247
3.3333e-247
1.61971e-247
7.81953e-248
3.76033e-248
1.8084e-248
8.70542e-249
3.98655e-249
1.9339e-249
9.38008e-250
4.55246e-250
2.21255e-250
1.07739e-250
5.25524e-251
2.56475e-251
1.25009e-251
6.07603e-252
2.94343e-252
1.42165e-252
6.85531e-253
3.30272e-253
1.53969e-253
7.46286e-254
3.61947e-254
1.70732e-254
8.31174e-255
4.04328e-255
1.96466e-255
9.53332e-256
4.6203e-256
2.23666e-256
1.06533e-256
5.16594e-257
2.47789e-257
1.19913e-257
5.89351e-258
3.07352e-258
1.95774e-258
)
;

boundaryField
{
    inlet
    {
        type            cyclic;
    }
    outlet
    {
        type            cyclic;
    }
    top
    {
        type            zeroGradient;
    }
    bottom
    {
        type            zeroGradient;
    }
    frontAndBackPlanes
    {
        type            empty;
    }
}


// ************************************************************************* //
