/*--------------------------------*- C++ -*----------------------------------*\
| =========                 |                                                 |
| \\      /  F ield         | OpenFOAM: The Open Source CFD Toolbox           |
|  \\    /   O peration     | Version:  2206                                  |
|   \\  /    A nd           | Website:  www.openfoam.com                      |
|    \\/     M anipulation  |                                                 |
\*---------------------------------------------------------------------------*/
FoamFile
{
    version     2.0;
    format      ascii;
    arch        "LSB;label=32;scalar=64";
    class       volScalarField;
    location    "250";
    object      nuEffb;
}
// * * * * * * * * * * * * * * * * * * * * * * * * * * * * * * * * * * * * * //

dimensions      [0 2 -1 0 0 0 0];

internalField   nonuniform List<scalar> 
200
(
0.00157218
0.00157179
0.00157174
0.00157137
0.00157123
0.00157091
0.00157073
0.00157044
0.00157023
0.00156994
0.00156972
0.00156943
0.00156921
0.00156891
0.00156869
0.00156837
0.00156815
0.00156782
0.00156759
0.00156727
0.00156703
0.00156669
0.00156645
0.00156611
0.00156585
0.00156551
0.00156524
0.00156489
0.00156461
0.00156426
0.00156396
0.0015636
0.0015633
0.00156293
0.00156261
0.00156224
0.00156191
0.00156153
0.00156119
0.00156079
0.00156044
0.00156003
0.00155966
0.00155925
0.00155886
0.00155843
0.00155803
0.00155759
0.00155718
0.00155671
0.00155628
0.00155581
0.00155536
0.00155486
0.00155439
0.00155387
0.00155338
0.00155284
0.00155233
0.00155177
0.00155123
0.00155063
0.00155007
0.00154945
0.00154885
0.00154819
0.00154757
0.00154687
0.00154621
0.00154547
0.00154476
0.00154397
0.00154322
0.00154238
0.00154157
0.00154066
0.00153979
0.00153881
0.00153786
0.00153679
0.00153576
0.00153458
0.00153344
0.00153214
0.00153086
0.0015294
0.00152795
0.00152628
0.00152461
0.00152266
0.00152069
0.00151834
0.00151592
0.00151297
0.00150981
0.00150581
0.00150134
0.0014951
0.00148561
0.00070478
0.000252301
0.000252001
0.000252
0.000252
0.000252
0.000252
0.000252
0.000252
0.000252
0.000252
0.000252
0.000252
0.000252
0.000252
0.000252
0.000252
0.000252
0.000252
0.000252
0.000252
0.000252
0.000252
0.000252
0.000252
0.000252
0.000252
0.000252
0.000252
0.000252
0.000252
0.000252
0.000252
0.000252
0.000252
0.000252
0.000252
0.000252
0.000252
0.000252
0.000252
0.000252
0.000252
0.000252
0.000252
0.000252
0.000252
0.000252
0.000252
0.000252
0.000252
0.000252
0.000252
0.000252
0.000252
0.000252
0.000252
0.000252
0.000252
0.000252
0.000252
0.000252
0.000252
0.000252
0.000252
0.000252
0.000252
0.000252
0.000252
0.000252
0.000252
0.000252
0.000252
0.000252
0.000252
0.000252
0.000252
0.000252
0.000252
0.000252
0.000252
0.000252
0.000252
0.000252
0.000252
0.000252
0.000252
0.000252
0.000252
0.000252
0.000252
0.000252
0.000252
0.000252
0.000252
0.000252
0.000252
0.000252
0.000252
0.000252
0.000252
)
;

boundaryField
{
    inlet
    {
        type            cyclic;
    }
    outlet
    {
        type            cyclic;
    }
    top
    {
        type            calculated;
        value           uniform 0.000252;
    }
    bottom
    {
        type            calculated;
        value           uniform 0.00157218;
    }
    frontAndBackPlanes
    {
        type            empty;
    }
}


// ************************************************************************* //
