/*--------------------------------*- C++ -*----------------------------------*\
| =========                 |                                                 |
| \\      /  F ield         | OpenFOAM: The Open Source CFD Toolbox           |
|  \\    /   O peration     | Version:  2206                                  |
|   \\  /    A nd           | Website:  www.openfoam.com                      |
|    \\/     M anipulation  |                                                 |
\*---------------------------------------------------------------------------*/
FoamFile
{
    version     2.0;
    format      ascii;
    arch        "LSB;label=32;scalar=64";
    class       volScalarField;
    location    "250";
    object      nuFra;
}
// * * * * * * * * * * * * * * * * * * * * * * * * * * * * * * * * * * * * * //

dimensions      [0 2 -1 0 0 0 0];

internalField   nonuniform List<scalar> 
200
(
10
10
10
10
10
10
10
10
10
10
10
10
10
10
10
10
10
10
10
10
10
10
10
10
10
10
10
10
10
10
10
10
10
10
10
10
10
10
10
10
10
10
10
10
10
10
10
10
10
10
10
10
10
10
10
10
9.73753
7.31903
4.43986
2.25809
1.01542
0.424501
0.175788
0.075779
0.0356865
0.018755
0.0111413
0.00738786
0.00539569
0.00422248
0.00348228
0.00295874
0.00257235
0.00225815
0.00200411
0.00178276
0.00159704
0.00142991
0.00128731
0.00115628
0.0010433
0.000937713
0.000845995
0.000759056
0.000683124
0.000610266
0.000546382
0.00048443
0.000429953
0.000376628
0.000329644
0.00028327
0.000242351
0.000201619
0.000165631
0.000129786
9.87532e-05
6.72786e-05
3.60561e-05
8.21891e-11
4.91746e-11
4.74672e-11
4.98095e-11
5.15723e-11
5.32147e-11
5.45287e-11
5.57673e-11
5.71903e-11
5.87065e-11
6.02973e-11
6.19777e-11
6.37538e-11
6.56346e-11
6.76298e-11
6.97503e-11
7.2008e-11
7.44169e-11
7.69925e-11
7.97529e-11
8.27185e-11
8.59133e-11
8.93652e-11
9.3107e-11
9.71758e-11
1.01607e-10
1.06427e-10
1.11686e-10
1.17656e-10
1.2528e-10
1.36206e-10
1.49046e-10
1.44524e-10
8.18543e-11
1.4791e-11
1.69221e-11
0.000167233
8.40686e-12
8.40686e-12
0.00020684
1.57692e-11
1.43913e-11
1.14036e-10
1.06906e-10
8.37361e-12
8.8679e-12
0.000268852
8.86872e-12
8.42586e-12
1.38077e-10
4.66211e-10
5.86743e-10
5.03233e-10
3.96233e-10
3.21814e-10
2.74874e-10
2.43288e-10
2.19516e-10
2.00132e-10
1.8377e-10
1.69789e-10
1.57756e-10
1.47313e-10
1.3817e-10
1.30097e-10
1.22916e-10
1.16486e-10
1.10695e-10
1.05454e-10
1.00686e-10
9.6331e-11
9.23373e-11
8.86617e-11
8.52676e-11
8.2124e-11
7.92041e-11
7.64849e-11
7.39463e-11
7.15709e-11
6.93435e-11
6.72506e-11
6.52805e-11
6.34226e-11
6.16677e-11
6.00073e-11
5.84341e-11
5.69414e-11
5.55231e-11
5.41738e-11
5.28887e-11
5.16631e-11
5.04932e-11
4.93753e-11
4.83057e-11
4.72788e-11
4.62877e-11
4.53489e-11
4.45905e-11
4.42452e-11
4.33532e-11
3.53132e-11
)
;

boundaryField
{
    inlet
    {
        type            cyclic;
    }
    outlet
    {
        type            cyclic;
    }
    top
    {
        type            calculated;
        value           uniform 2.8864e-11;
    }
    bottom
    {
        type            calculated;
        value           uniform 10;
    }
    frontAndBackPlanes
    {
        type            empty;
    }
}


// ************************************************************************* //
