/*--------------------------------*- C++ -*----------------------------------*\
| =========                 |                                                 |
| \\      /  F ield         | OpenFOAM: The Open Source CFD Toolbox           |
|  \\    /   O peration     | Version:  2206                                  |
|   \\  /    A nd           | Website:  www.openfoam.com                      |
|    \\/     M anipulation  |                                                 |
\*---------------------------------------------------------------------------*/
FoamFile
{
    version     2.0;
    format      ascii;
    arch        "LSB;label=32;scalar=64";
    class       volScalarField;
    location    "250";
    object      p_rbgh;
}
// * * * * * * * * * * * * * * * * * * * * * * * * * * * * * * * * * * * * * //

dimensions      [1 -1 -2 0 0 0 0];

internalField   nonuniform List<scalar> 
200
(
-0.158286
-0.158286
-0.158285
-0.158286
-0.158286
-0.158288
-0.158288
-0.15829
-0.158291
-0.158293
-0.158295
-0.158297
-0.158299
-0.158302
-0.158304
-0.158307
-0.15831
-0.158314
-0.158317
-0.158321
-0.158325
-0.158329
-0.158333
-0.158338
-0.158343
-0.158348
-0.158353
-0.158359
-0.158364
-0.15837
-0.158376
-0.158382
-0.158389
-0.158396
-0.158402
-0.15841
-0.158417
-0.158424
-0.158432
-0.15844
-0.158448
-0.158456
-0.158464
-0.158473
-0.158481
-0.15849
-0.158499
-0.158508
-0.158517
-0.158526
-0.158535
-0.158545
-0.158554
-0.158564
-0.158573
-0.158583
-0.158593
-0.158603
-0.158612
-0.158622
-0.158631
-0.158639
-0.158647
-0.158653
-0.158659
-0.158663
-0.158665
-0.158666
-0.158664
-0.158661
-0.158655
-0.158646
-0.158635
-0.15862
-0.158603
-0.158581
-0.158555
-0.158523
-0.158487
-0.158444
-0.158396
-0.158338
-0.158274
-0.158198
-0.158113
-0.158014
-0.157904
-0.157775
-0.157632
-0.15747
-0.157308
-0.157135
-0.15682
-0.156136
-0.155665
-0.158178
-0.16493
-0.160303
-0.108332
-0.0418304
-0.0189207
-0.00158738
0.00254125
0.00168214
0.000250861
-0.000106179
-3.87434e-05
-1.12475e-07
1.3566e-06
1.11429e-07
-5.43995e-08
-4.17871e-08
-1.77258e-09
8.64677e-09
2.12058e-09
-5.66152e-10
-2.12853e-10
5.51803e-11
7.36956e-11
5.18307e-11
1.69994e-11
-2.64537e-11
-6.2028e-11
-8.67536e-11
-8.30619e-11
-6.99354e-11
-2.54928e-11
1.43525e-12
4.00321e-11
5.18387e-11
3.09487e-11
3.20391e-11
-3.36992e-11
-4.57862e-11
-5.92779e-11
-8.83294e-11
-4.27306e-11
-1.53778e-11
-1.12271e-11
3.67183e-11
4.79726e-11
6.6555e-12
-3.47274e-12
-1.06935e-11
-5.73542e-11
-7.47726e-11
-3.83046e-11
-1.66251e-11
-1.8528e-11
6.60255e-12
3.99879e-11
2.52251e-11
-1.86144e-11
-3.43715e-11
-2.71299e-11
-3.65177e-11
-5.24084e-11
-3.50804e-11
7.74838e-12
2.78406e-11
9.68879e-12
-1.32853e-11
-1.58414e-11
-1.35266e-11
-2.70552e-11
-4.41462e-11
-3.77294e-11
-7.827e-12
1.60014e-11
1.21743e-11
-8.97204e-12
-2.30144e-11
-2.18888e-11
-1.75922e-11
-2.04948e-11
-2.48172e-11
-1.88233e-11
-3.14064e-12
7.66396e-12
1.71039e-12
-1.62566e-11
-2.9815e-11
-2.80199e-11
-1.53862e-11
-5.18711e-12
-5.18744e-12
-1.13814e-11
-1.47085e-11
-1.16557e-11
-7.15697e-12
-7.90495e-12
-1.44387e-11
-2.05688e-11
-2.01604e-11
-1.35405e-11
-6.765e-12
-5.49647e-12
-9.95564e-12
-1.30082e-11
-6.65339e-12
)
;

boundaryField
{
    inlet
    {
        type            cyclic;
    }
    outlet
    {
        type            cyclic;
    }
    top
    {
        type            fixedValue;
        value           uniform 0;
    }
    bottom
    {
        type            fixedFluxPressure;
        gradient        uniform 0;
        value           uniform -0.158286;
    }
    frontAndBackPlanes
    {
        type            empty;
    }
}


// ************************************************************************* //
