/*--------------------------------*- C++ -*----------------------------------*\
| =========                 |                                                 |
| \\      /  F ield         | OpenFOAM: The Open Source CFD Toolbox           |
|  \\    /   O peration     | Version:  2206                                  |
|   \\  /    A nd           | Website:  www.openfoam.com                      |
|    \\/     M anipulation  |                                                 |
\*---------------------------------------------------------------------------*/
FoamFile
{
    version     2.0;
    format      ascii;
    arch        "LSB;label=32;scalar=64";
    class       volScalarField;
    location    "250";
    object      pff;
}
// * * * * * * * * * * * * * * * * * * * * * * * * * * * * * * * * * * * * * //

dimensions      [1 -1 -2 0 0 0 0];

internalField   nonuniform List<scalar> 
200
(
22.6984
22.3165
22.2598
21.8982
21.7681
21.4653
21.2911
21.0188
20.8257
20.5635
20.3667
20.1042
19.9099
19.6442
19.453
19.1851
18.9952
18.727
18.5365
18.2698
18.0773
17.8132
17.6178
17.3569
17.1583
16.9006
16.6989
16.4444
16.2398
15.988
15.7809
15.5317
15.3223
15.0752
14.8639
14.6187
14.4057
14.1621
13.9478
13.7055
13.4902
13.249
13.0327
12.7924
12.5754
12.3358
12.1183
11.8793
11.6614
11.4229
11.2047
10.9666
10.7481
10.5104
10.2917
10.0542
9.83551
9.59835
9.37977
9.14244
8.92384
8.68664
8.46784
8.23107
8.01224
7.77566
7.55686
7.32042
7.10169
6.86537
6.64672
6.4105
6.19195
5.95585
5.7374
5.50142
5.28308
5.04723
4.829
4.5933
4.37518
4.13964
3.92164
3.6863
3.46841
3.23329
3.01552
2.78066
2.56301
2.32845
2.11095
1.87675
1.65944
1.42552
1.20821
0.975424
0.762785
0.533801
0.298354
0
0
0
0
0
0
0
0
0
0
0
0
0
0
0
0
0
0
0
0
0
0
0
0
0
0
0
0
0
0
0
0
0
0
0
0
0
0
0
0
0
0
0
0
0
0
0
0
0
0
0
0
0
0
0
0
0
0
0
0
0
0
0
0
0
0
0
0
0
0
0
0
0
0
0
0
0
0
0
0
0
0
0
0
0
0
0
0
0
0
0
0
0
0
0
0
0
0
0
0
0
)
;

boundaryField
{
    inlet
    {
        type            cyclic;
    }
    outlet
    {
        type            cyclic;
    }
    top
    {
        type            calculated;
        value           uniform 0;
    }
    bottom
    {
        type            calculated;
        value           uniform 22.6984;
    }
    frontAndBackPlanes
    {
        type            empty;
    }
}


// ************************************************************************* //
