/*--------------------------------*- C++ -*----------------------------------*\
| =========                 |                                                 |
| \\      /  F ield         | OpenFOAM: The Open Source CFD Toolbox           |
|  \\    /   O peration     | Version:  2206                                  |
|   \\  /    A nd           | Website:  www.openfoam.com                      |
|    \\/     M anipulation  |                                                 |
\*---------------------------------------------------------------------------*/
FoamFile
{
    version     2.0;
    format      ascii;
    arch        "LSB;label=32;scalar=64";
    class       surfaceScalarField;
    location    "250";
    object      phi.a;
}
// * * * * * * * * * * * * * * * * * * * * * * * * * * * * * * * * * * * * * //

dimensions      [0 3 -1 0 0 0 0];

oriented        oriented;

internalField   nonuniform List<scalar> 
199
(
-6.63411e-18
-5.31807e-18
-1.87717e-17
-1.29713e-17
-2.85569e-17
-2.33805e-17
-3.66852e-17
-3.51802e-17
-4.47061e-17
-4.6981e-17
-5.35513e-17
-5.8277e-17
-6.33239e-17
-6.91706e-17
-7.3771e-17
-7.99073e-17
-8.46226e-17
-9.06714e-17
-9.569e-17
-1.01552e-16
-1.06863e-16
-1.12563e-16
-1.18082e-16
-1.23672e-16
-1.29306e-16
-1.34824e-16
-1.40498e-16
-1.45955e-16
-1.51611e-16
-1.56999e-16
-1.62587e-16
-1.67884e-16
-1.7336e-16
-1.78538e-16
-1.83856e-16
-1.88879e-16
-1.93998e-16
-1.98825e-16
-2.03704e-16
-2.08289e-16
-2.12889e-16
-2.17188e-16
-2.21463e-16
-2.25437e-16
-2.29341e-16
-2.32947e-16
-2.36436e-16
-2.39631e-16
-2.42668e-16
-2.45426e-16
-2.47967e-16
-2.50215e-16
-2.52214e-16
-2.53881e-16
-2.55352e-16
-2.56204e-16
-2.56092e-16
-2.53529e-16
-2.47509e-16
-2.37537e-16
-2.18603e-16
-2.0101e-16
-1.74726e-16
-1.47504e-16
-1.04244e-16
-6.2204e-17
-1.19596e-17
4.02998e-17
9.93602e-17
1.62707e-16
2.34194e-16
3.11113e-16
3.99825e-16
4.93414e-16
6.05933e-16
7.20631e-16
8.63889e-16
1.00624e-15
1.19151e-15
1.36751e-15
1.60631e-15
1.82697e-15
2.13096e-15
2.41323e-15
2.80082e-15
3.16039e-15
3.65537e-15
4.1033e-15
4.69844e-15
5.26036e-15
5.92888e-15
6.53313e-15
7.10006e-15
7.77701e-15
8.29431e-15
7.16515e-15
-2.30119e-14
-1.2102e-13
-5.24065e-14
-3.85929e-12
1.24763e-11
-1.78738e-10
-4.04531e-10
-3.97949e-10
-4.01847e-10
-4.05808e-10
-4.07232e-10
-4.07588e-10
-4.07687e-10
-4.07723e-10
-4.07737e-10
-4.07741e-10
-4.07743e-10
-4.07744e-10
-4.07744e-10
-4.07744e-10
-4.07744e-10
-4.07744e-10
-4.07744e-10
-4.07744e-10
-4.07744e-10
-4.07744e-10
-4.07744e-10
-4.07744e-10
-4.07744e-10
-4.07743e-10
-4.07742e-10
-4.07741e-10
-4.07737e-10
-4.07729e-10
-4.07712e-10
-4.07673e-10
-4.07468e-10
-4.07303e-10
-4.07315e-10
-4.07315e-10
-4.06567e-10
-4.05819e-10
-4.05819e-10
-4.0651e-10
-4.07348e-10
-4.07487e-10
-4.07275e-10
-4.06769e-10
-4.06465e-10
-4.06465e-10
-4.06858e-10
-4.07441e-10
-4.07655e-10
-4.0769e-10
-4.07707e-10
-4.07718e-10
-4.07727e-10
-4.07733e-10
-4.07738e-10
-4.0774e-10
-4.07742e-10
-4.07743e-10
-4.07744e-10
-4.07744e-10
-4.07744e-10
-4.07745e-10
-4.07745e-10
-4.07745e-10
-4.07745e-10
-4.07745e-10
-4.07745e-10
-4.07745e-10
-4.07745e-10
-4.07745e-10
-4.07745e-10
-4.07745e-10
-4.07745e-10
-4.07745e-10
-4.07745e-10
-4.07745e-10
-4.07745e-10
-4.07745e-10
-4.07745e-10
-4.07745e-10
-4.07745e-10
-4.07745e-10
-4.07745e-10
-4.07745e-10
-4.07745e-10
-4.07745e-10
-4.07745e-10
-4.07745e-10
-4.07744e-10
-4.07743e-10
-4.07738e-10
-4.07724e-10
-4.07677e-10
-4.07523e-10
-4.07019e-10
-4.05345e-10
-3.99772e-10
-3.81094e-10
-3.17752e-10
)
;

boundaryField
{
    inlet
    {
        type            cyclic;
        value           nonuniform List<scalar> 
200
(
-1.39754e-14
-4.17765e-14
-6.94027e-14
-9.68452e-14
-1.24101e-13
-1.51168e-13
-1.78047e-13
-2.04737e-13
-2.31237e-13
-2.57548e-13
-2.83669e-13
-3.096e-13
-3.35341e-13
-3.60892e-13
-3.86251e-13
-4.1142e-13
-4.36397e-13
-4.61183e-13
-4.85777e-13
-5.10179e-13
-5.3439e-13
-5.58408e-13
-5.82233e-13
-6.05865e-13
-6.29305e-13
-6.52551e-13
-6.75604e-13
-6.98463e-13
-7.21129e-13
-7.436e-13
-7.65877e-13
-7.8796e-13
-8.09848e-13
-8.31541e-13
-8.5304e-13
-8.74343e-13
-8.95451e-13
-9.16363e-13
-9.3708e-13
-9.576e-13
-9.77925e-13
-9.98053e-13
-1.01799e-12
-1.03772e-12
-1.05726e-12
-1.0766e-12
-1.09575e-12
-1.1147e-12
-1.13345e-12
-1.152e-12
-1.17036e-12
-1.18851e-12
-1.20648e-12
-1.22424e-12
-1.2418e-12
-1.25917e-12
-1.27657e-12
-1.29646e-12
-1.32499e-12
-1.37447e-12
-1.47447e-12
-1.69893e-12
-2.22998e-12
-3.47743e-12
-6.24032e-12
-1.1767e-11
-2.15479e-11
-3.68107e-11
-5.81341e-11
-8.54086e-11
-1.18169e-10
-1.55886e-10
-1.98169e-10
-2.44767e-10
-2.95557e-10
-3.50474e-10
-4.09501e-10
-4.72621e-10
-5.39835e-10
-6.11132e-10
-6.86516e-10
-7.65978e-10
-8.49523e-10
-9.37142e-10
-1.02884e-09
-1.12462e-09
-1.22447e-09
-1.3284e-09
-1.43642e-09
-1.54852e-09
-1.6647e-09
-1.78497e-09
-1.90934e-09
-2.0378e-09
-2.17041e-09
-2.30715e-09
-2.44792e-09
-2.59237e-09
-2.74086e-09
-2.89755e-09
-3.18545e-09
-3.56203e-09
-3.93546e-09
-4.2972e-09
-4.64911e-09
-4.99192e-09
-5.32683e-09
-5.65383e-09
-5.97249e-09
-6.28281e-09
-6.58485e-09
-6.87858e-09
-7.16402e-09
-7.44116e-09
-7.71e-09
-7.97054e-09
-8.22278e-09
-8.46672e-09
-8.70236e-09
-8.92971e-09
-9.14875e-09
-9.35949e-09
-9.56193e-09
-9.75607e-09
-9.94191e-09
-1.01195e-08
-1.02889e-08
-1.04501e-08
-1.06027e-08
-1.07448e-08
-1.08738e-08
-1.09926e-08
-1.11293e-08
-1.14437e-08
-1.36257e-08
-1.36257e-08
-1.36257e-08
-9.23351e-09
-9.23351e-09
-9.23351e-09
-1.1575e-08
-1.17992e-08
-1.18988e-08
-1.21446e-08
-1.63085e-08
-1.63085e-08
-1.63085e-08
-1.2145e-08
-1.19262e-08
-1.18776e-08
-1.1847e-08
-1.18147e-08
-1.17736e-08
-1.17215e-08
-1.16589e-08
-1.15871e-08
-1.15071e-08
-1.14189e-08
-1.13226e-08
-1.1218e-08
-1.11051e-08
-1.09839e-08
-1.08545e-08
-1.07167e-08
-1.05707e-08
-1.04163e-08
-1.02537e-08
-1.00827e-08
-9.90352e-09
-9.71601e-09
-9.52021e-09
-9.31613e-09
-9.10375e-09
-8.88309e-09
-8.65413e-09
-8.41689e-09
-8.17137e-09
-7.91755e-09
-7.65545e-09
-7.38507e-09
-7.1064e-09
-6.81944e-09
-6.5242e-09
-6.22068e-09
-5.90887e-09
-5.58878e-09
-5.26041e-09
-4.92376e-09
-4.57882e-09
-4.2256e-09
-3.86411e-09
-3.49433e-09
-3.11628e-09
-2.72994e-09
-2.33528e-09
-1.93223e-09
-1.52106e-09
-1.10419e-09
-6.86938e-10
-2.57201e-10
)
;
    }
    outlet
    {
        type            cyclic;
        value           nonuniform List<scalar> 
200
(
1.39754e-14
4.17765e-14
6.94027e-14
9.68452e-14
1.24101e-13
1.51168e-13
1.78047e-13
2.04737e-13
2.31237e-13
2.57548e-13
2.83669e-13
3.096e-13
3.35341e-13
3.60892e-13
3.86251e-13
4.1142e-13
4.36397e-13
4.61183e-13
4.85777e-13
5.10179e-13
5.3439e-13
5.58408e-13
5.82233e-13
6.05865e-13
6.29305e-13
6.52551e-13
6.75604e-13
6.98463e-13
7.21129e-13
7.436e-13
7.65877e-13
7.8796e-13
8.09848e-13
8.31541e-13
8.5304e-13
8.74343e-13
8.95451e-13
9.16363e-13
9.3708e-13
9.576e-13
9.77925e-13
9.98053e-13
1.01799e-12
1.03772e-12
1.05726e-12
1.0766e-12
1.09575e-12
1.1147e-12
1.13345e-12
1.152e-12
1.17036e-12
1.18851e-12
1.20648e-12
1.22424e-12
1.2418e-12
1.25917e-12
1.27657e-12
1.29646e-12
1.32499e-12
1.37447e-12
1.47447e-12
1.69893e-12
2.22998e-12
3.47743e-12
6.24032e-12
1.1767e-11
2.15479e-11
3.68107e-11
5.81341e-11
8.54086e-11
1.18169e-10
1.55886e-10
1.98169e-10
2.44767e-10
2.95557e-10
3.50474e-10
4.09501e-10
4.72621e-10
5.39835e-10
6.11132e-10
6.86516e-10
7.65978e-10
8.49523e-10
9.37142e-10
1.02884e-09
1.12462e-09
1.22447e-09
1.3284e-09
1.43642e-09
1.54852e-09
1.6647e-09
1.78497e-09
1.90934e-09
2.0378e-09
2.17041e-09
2.30715e-09
2.44792e-09
2.59237e-09
2.74086e-09
2.89755e-09
3.18545e-09
3.56203e-09
3.93546e-09
4.2972e-09
4.64911e-09
4.99192e-09
5.32683e-09
5.65383e-09
5.97249e-09
6.28281e-09
6.58485e-09
6.87858e-09
7.16402e-09
7.44116e-09
7.71e-09
7.97054e-09
8.22278e-09
8.46672e-09
8.70236e-09
8.92971e-09
9.14875e-09
9.35949e-09
9.56193e-09
9.75607e-09
9.94191e-09
1.01195e-08
1.02889e-08
1.04501e-08
1.06027e-08
1.07448e-08
1.08738e-08
1.09926e-08
1.11293e-08
1.14437e-08
1.36257e-08
1.36257e-08
1.36257e-08
9.23351e-09
9.23351e-09
9.23351e-09
1.1575e-08
1.17992e-08
1.18988e-08
1.21446e-08
1.63085e-08
1.63085e-08
1.63085e-08
1.2145e-08
1.19262e-08
1.18776e-08
1.1847e-08
1.18147e-08
1.17736e-08
1.17215e-08
1.16589e-08
1.15871e-08
1.15071e-08
1.14189e-08
1.13226e-08
1.1218e-08
1.11051e-08
1.09839e-08
1.08545e-08
1.07167e-08
1.05707e-08
1.04163e-08
1.02537e-08
1.00827e-08
9.90352e-09
9.71601e-09
9.52021e-09
9.31613e-09
9.10375e-09
8.88309e-09
8.65413e-09
8.41689e-09
8.17137e-09
7.91755e-09
7.65545e-09
7.38507e-09
7.1064e-09
6.81944e-09
6.5242e-09
6.22068e-09
5.90887e-09
5.58878e-09
5.26041e-09
4.92376e-09
4.57882e-09
4.2256e-09
3.86411e-09
3.49433e-09
3.11628e-09
2.72994e-09
2.33528e-09
1.93223e-09
1.52106e-09
1.10419e-09
6.86938e-10
2.57201e-10
)
;
    }
    top
    {
        type            fixedValue;
        value           uniform 0;
    }
    bottom
    {
        type            fixedValue;
        value           uniform 0;
    }
    frontAndBackPlanes
    {
        type            empty;
        value           nonuniform List<scalar> 0();
    }
}


// ************************************************************************* //
