/*--------------------------------*- C++ -*----------------------------------*\
| =========                 |                                                 |
| \\      /  F ield         | OpenFOAM: The Open Source CFD Toolbox           |
|  \\    /   O peration     | Version:  2206                                  |
|   \\  /    A nd           | Website:  www.openfoam.com                      |
|    \\/     M anipulation  |                                                 |
\*---------------------------------------------------------------------------*/
FoamFile
{
    version     2.0;
    format      ascii;
    arch        "LSB;label=32;scalar=64";
    class       surfaceScalarField;
    location    "250";
    object      phi.b;
}
// * * * * * * * * * * * * * * * * * * * * * * * * * * * * * * * * * * * * * //

dimensions      [0 3 -1 0 0 0 0];

oriented        oriented;

internalField   nonuniform List<scalar> 
199
(
9.92602e-18
7.95417e-18
2.80825e-17
1.94038e-17
4.27113e-17
3.49622e-17
5.48436e-17
5.25814e-17
6.68075e-17
7.01965e-17
8.00005e-17
8.70431e-17
9.45595e-17
1.03266e-16
1.10111e-16
1.19249e-16
1.26264e-16
1.35262e-16
1.42716e-16
1.51422e-16
1.59304e-16
1.67766e-16
1.75955e-16
1.84246e-16
1.92595e-16
2.00765e-16
2.09164e-16
2.17237e-16
2.256e-16
2.33558e-16
2.41808e-16
2.49625e-16
2.57704e-16
2.65337e-16
2.73168e-16
2.80552e-16
2.88073e-16
2.95159e-16
3.02319e-16
3.09035e-16
3.15767e-16
3.22051e-16
3.28296e-16
3.34085e-16
3.39761e-16
3.4499e-16
3.50046e-16
3.54659e-16
3.5903e-16
3.62986e-16
3.66622e-16
3.69817e-16
3.72635e-16
3.74958e-16
3.7699e-16
3.78099e-16
3.77779e-16
3.73849e-16
3.64821e-16
3.49972e-16
3.21937e-16
2.95903e-16
2.57091e-16
2.16935e-16
1.53243e-16
9.13922e-17
1.75616e-17
-5.91498e-17
-1.45764e-16
-2.38546e-16
-3.43166e-16
-4.55589e-16
-5.8514e-16
-7.21639e-16
-8.85615e-16
-1.05253e-15
-1.26086e-15
-1.46753e-15
-1.73638e-15
-1.99122e-15
-2.33692e-15
-2.65555e-15
-3.09445e-15
-3.50082e-15
-4.05873e-15
-4.57458e-15
-5.2846e-15
-5.9244e-15
-6.77404e-15
-7.5725e-15
-8.52035e-15
-9.37105e-15
-1.01626e-14
-1.11046e-14
-1.18096e-14
-1.01675e-14
3.25146e-14
1.69915e-13
4.48511e-14
7.89219e-13
-2.1352e-15
1.08922e-16
-2.43848e-21
-5.66036e-21
-5.28585e-21
-3.57701e-21
-8.45993e-22
2.01858e-21
4.43963e-21
5.54368e-21
5.28819e-21
3.45944e-21
8.69488e-22
-2.13179e-21
-4.32228e-21
-5.53498e-21
-4.95505e-21
-3.29098e-21
-3.90201e-22
2.18605e-21
4.67779e-21
4.95729e-21
5.19971e-21
1.65072e-21
1.29156e-21
-4.75034e-21
-2.52603e-21
-6.65473e-21
-3.9104e-21
8.6578e-22
-3.8925e-21
9.41551e-21
1.1421e-21
3.48182e-21
8.10447e-21
-5.01155e-21
-2.13294e-21
7.18985e-22
-9.57943e-21
-4.52095e-21
4.54077e-21
-1.11869e-21
-2.23083e-22
9.43655e-21
5.56847e-21
-3.92064e-21
-1.20112e-21
1.8904e-21
-5.64694e-21
-8.92084e-21
6.2309e-23
6.15896e-21
1.83815e-21
-5.43694e-22
4.74622e-21
6.26851e-21
-1.85123e-21
-8.68194e-21
-5.28183e-21
1.4947e-21
1.96284e-21
-1.21503e-21
2.86126e-22
5.68901e-21
6.39592e-21
-3.35967e-22
-7.03083e-21
-6.42479e-21
-6.37078e-22
3.01039e-21
1.95099e-21
2.52734e-22
1.47806e-21
3.48881e-21
1.93291e-21
-3.13737e-21
-6.59688e-21
-4.2668e-21
2.02514e-21
6.32664e-21
4.90354e-21
-2.17086e-22
-3.9348e-21
-3.43608e-21
-4.1219e-22
1.56419e-21
9.9746e-22
-5.04069e-22
-6.52232e-22
7.76483e-22
1.881e-21
1.01127e-21
-1.23563e-21
-2.59031e-21
-1.54746e-21
9.79677e-22
2.5284e-21
1.57951e-21
-8.9468e-22
)
;

boundaryField
{
    inlet
    {
        type            cyclic;
        value           nonuniform List<scalar> 
200
(
-5.2214e-13
-8.94862e-13
-1.03964e-12
-1.10722e-12
-1.14833e-12
-1.18048e-12
-1.20937e-12
-1.2371e-12
-1.26426e-12
-1.29116e-12
-1.3178e-12
-1.34428e-12
-1.37053e-12
-1.39663e-12
-1.42251e-12
-1.44825e-12
-1.47376e-12
-1.49913e-12
-1.52426e-12
-1.54926e-12
-1.57403e-12
-1.59866e-12
-1.62306e-12
-1.64732e-12
-1.67136e-12
-1.69524e-12
-1.71891e-12
-1.74243e-12
-1.76573e-12
-1.78887e-12
-1.8118e-12
-1.83458e-12
-1.85714e-12
-1.87955e-12
-1.90174e-12
-1.92378e-12
-1.94561e-12
-1.96728e-12
-1.98874e-12
-2.01005e-12
-2.03114e-12
-2.05208e-12
-2.07281e-12
-2.09339e-12
-2.11376e-12
-2.13397e-12
-2.15398e-12
-2.17383e-12
-2.19348e-12
-2.21297e-12
-2.23227e-12
-2.25142e-12
-2.27042e-12
-2.28938e-12
-2.30848e-12
-2.32842e-12
-2.35106e-12
-2.38168e-12
-2.4323e-12
-2.52925e-12
-2.73052e-12
-3.16147e-12
-4.07883e-12
-5.96399e-12
-9.61153e-12
-1.61233e-11
-2.67242e-11
-4.24311e-11
-6.37899e-11
-9.08371e-11
-1.23281e-10
-1.60723e-10
-2.0281e-10
-2.49292e-10
-3.00021e-10
-3.54913e-10
-4.13929e-10
-4.77048e-10
-5.44263e-10
-6.15565e-10
-6.90952e-10
-7.70421e-10
-8.53971e-10
-9.41598e-10
-1.03331e-09
-1.12909e-09
-1.22895e-09
-1.3329e-09
-1.44092e-09
-1.55303e-09
-1.66923e-09
-1.78951e-09
-1.9139e-09
-2.04239e-09
-2.17499e-09
-2.31171e-09
-2.45249e-09
-2.59734e-09
-2.74677e-09
-2.91809e-09
-3.17293e-09
-3.5495e-09
-3.91793e-09
-4.27807e-09
-4.62992e-09
-4.97346e-09
-5.30871e-09
-5.63566e-09
-5.95431e-09
-6.26467e-09
-6.56673e-09
-6.86049e-09
-7.14595e-09
-7.42311e-09
-7.69197e-09
-7.95253e-09
-8.2048e-09
-8.44876e-09
-8.68443e-09
-8.91179e-09
-9.13086e-09
-9.34162e-09
-9.54409e-09
-9.73826e-09
-9.92412e-09
-1.01017e-08
-1.0271e-08
-1.04319e-08
-1.05846e-08
-1.07289e-08
-1.0865e-08
-1.09928e-08
-1.11122e-08
-1.12234e-08
-1.13263e-08
-1.14208e-08
-1.15071e-08
-1.15851e-08
-1.16547e-08
-1.17161e-08
-1.17692e-08
-1.1814e-08
-1.18504e-08
-1.18786e-08
-1.18985e-08
-1.19101e-08
-1.19133e-08
-1.19083e-08
-1.1895e-08
-1.18734e-08
-1.18435e-08
-1.18053e-08
-1.17588e-08
-1.1704e-08
-1.16409e-08
-1.15695e-08
-1.14898e-08
-1.14019e-08
-1.13056e-08
-1.1201e-08
-1.10882e-08
-1.0967e-08
-1.08376e-08
-1.06998e-08
-1.05538e-08
-1.03995e-08
-1.02369e-08
-1.0066e-08
-9.88679e-09
-9.6993e-09
-9.50353e-09
-9.29947e-09
-9.08712e-09
-8.86648e-09
-8.63755e-09
-8.40034e-09
-8.15484e-09
-7.90105e-09
-7.63897e-09
-7.36861e-09
-7.08997e-09
-6.80304e-09
-6.50782e-09
-6.20432e-09
-5.89254e-09
-5.57247e-09
-5.24413e-09
-4.9075e-09
-4.56258e-09
-4.20939e-09
-3.84792e-09
-3.47817e-09
-3.10013e-09
-2.71382e-09
-2.31923e-09
-1.91637e-09
-1.50522e-09
-1.0858e-09
-6.581e-10
-2.22125e-10
)
;
    }
    outlet
    {
        type            cyclic;
        value           nonuniform List<scalar> 
200
(
5.2214e-13
8.94862e-13
1.03964e-12
1.10722e-12
1.14833e-12
1.18048e-12
1.20937e-12
1.2371e-12
1.26426e-12
1.29116e-12
1.3178e-12
1.34428e-12
1.37053e-12
1.39663e-12
1.42251e-12
1.44825e-12
1.47376e-12
1.49913e-12
1.52426e-12
1.54926e-12
1.57403e-12
1.59866e-12
1.62306e-12
1.64732e-12
1.67136e-12
1.69524e-12
1.71891e-12
1.74243e-12
1.76573e-12
1.78887e-12
1.8118e-12
1.83458e-12
1.85714e-12
1.87955e-12
1.90174e-12
1.92378e-12
1.94561e-12
1.96728e-12
1.98874e-12
2.01005e-12
2.03114e-12
2.05208e-12
2.07281e-12
2.09339e-12
2.11376e-12
2.13397e-12
2.15398e-12
2.17383e-12
2.19348e-12
2.21297e-12
2.23227e-12
2.25142e-12
2.27042e-12
2.28938e-12
2.30848e-12
2.32842e-12
2.35106e-12
2.38168e-12
2.4323e-12
2.52925e-12
2.73052e-12
3.16147e-12
4.07883e-12
5.96399e-12
9.61153e-12
1.61233e-11
2.67242e-11
4.24311e-11
6.37899e-11
9.08371e-11
1.23281e-10
1.60723e-10
2.0281e-10
2.49292e-10
3.00021e-10
3.54913e-10
4.13929e-10
4.77048e-10
5.44263e-10
6.15565e-10
6.90952e-10
7.70421e-10
8.53971e-10
9.41598e-10
1.03331e-09
1.12909e-09
1.22895e-09
1.3329e-09
1.44092e-09
1.55303e-09
1.66923e-09
1.78951e-09
1.9139e-09
2.04239e-09
2.17499e-09
2.31171e-09
2.45249e-09
2.59734e-09
2.74677e-09
2.91809e-09
3.17293e-09
3.5495e-09
3.91793e-09
4.27807e-09
4.62992e-09
4.97346e-09
5.30871e-09
5.63566e-09
5.95431e-09
6.26467e-09
6.56673e-09
6.86049e-09
7.14595e-09
7.42311e-09
7.69197e-09
7.95253e-09
8.2048e-09
8.44876e-09
8.68443e-09
8.91179e-09
9.13086e-09
9.34162e-09
9.54409e-09
9.73826e-09
9.92412e-09
1.01017e-08
1.0271e-08
1.04319e-08
1.05846e-08
1.07289e-08
1.0865e-08
1.09928e-08
1.11122e-08
1.12234e-08
1.13263e-08
1.14208e-08
1.15071e-08
1.15851e-08
1.16547e-08
1.17161e-08
1.17692e-08
1.1814e-08
1.18504e-08
1.18786e-08
1.18985e-08
1.19101e-08
1.19133e-08
1.19083e-08
1.1895e-08
1.18734e-08
1.18435e-08
1.18053e-08
1.17588e-08
1.1704e-08
1.16409e-08
1.15695e-08
1.14898e-08
1.14019e-08
1.13056e-08
1.1201e-08
1.10882e-08
1.0967e-08
1.08376e-08
1.06998e-08
1.05538e-08
1.03995e-08
1.02369e-08
1.0066e-08
9.88679e-09
9.6993e-09
9.50353e-09
9.29947e-09
9.08712e-09
8.86648e-09
8.63755e-09
8.40034e-09
8.15484e-09
7.90105e-09
7.63897e-09
7.36861e-09
7.08997e-09
6.80304e-09
6.50782e-09
6.20432e-09
5.89254e-09
5.57247e-09
5.24413e-09
4.9075e-09
4.56258e-09
4.20939e-09
3.84792e-09
3.47817e-09
3.10013e-09
2.71382e-09
2.31923e-09
1.91637e-09
1.50522e-09
1.0858e-09
6.581e-10
2.22125e-10
)
;
    }
    top
    {
        type            fixedValue;
        value           uniform 0;
    }
    bottom
    {
        type            fixedValue;
        value           uniform 0;
    }
    frontAndBackPlanes
    {
        type            empty;
        value           nonuniform List<scalar> 0();
    }
}


// ************************************************************************* //
