/*--------------------------------*- C++ -*----------------------------------*\
| =========                 |                                                 |
| \\      /  F ield         | OpenFOAM: The Open Source CFD Toolbox           |
|  \\    /   O peration     | Version:  2206                                  |
|   \\  /    A nd           | Website:  www.openfoam.com                      |
|    \\/     M anipulation  |                                                 |
\*---------------------------------------------------------------------------*/
FoamFile
{
    version     2.0;
    format      ascii;
    arch        "LSB;label=32;scalar=64";
    class       volTensorField;
    location    "250";
    object      Taua;
}
// * * * * * * * * * * * * * * * * * * * * * * * * * * * * * * * * * * * * * //

dimensions      [1 -1 -2 0 0 0 0];

internalField   nonuniform List<tensor> 
200
(
(-0.00526918 0 0 4.83167 0.0105384 0 0 0 -0.00526918)
(0.00542276 0 0 4.80353 -0.0108455 0 0 0 0.00542276)
(0.000388744 5.34106e-19 0 4.77245 -0.000777488 0 0 0 0.000388744)
(-0.000167651 0 0 4.74033 0.000335302 0 0 0 -0.000167651)
(0.000450315 0 0 4.70783 -0.000900631 0 0 0 0.000450315)
(-0.000149613 -4.1727e-21 0 4.67518 0.000299225 0 0 0 -0.000149613)
(0.000384412 -2.67053e-19 0 4.64245 -0.000768824 0 0 0 0.000384412)
(-4.35272e-05 0 0 4.60966 8.70544e-05 0 0 0 -4.35272e-05)
(0.000275218 2.67053e-19 0 4.57683 -0.000550436 0 0 0 0.000275218)
(6.5696e-05 0 0 4.54395 -0.000131392 0 0 0 6.5696e-05)
(0.000189812 0 0 4.51103 -0.000379624 0 0 0 0.000189812)
(0.000136511 0 0 4.47807 -0.000273022 0 0 0 0.000136511)
(0.000145795 0 0 4.44507 -0.00029159 0 0 0 0.000145795)
(0.000168901 0 0 4.41203 -0.000337802 0 0 0 0.000168901)
(0.00013289 0 0 4.37895 -0.000265781 0 0 0 0.00013289)
(0.000177271 5.34106e-19 0 4.34583 -0.000354542 0 0 0 0.000177271)
(0.000136211 0 0 4.31266 -0.000272422 0 0 0 0.000136211)
(0.00017474 0 0 4.27946 -0.00034948 0 0 0 0.00017474)
(0.000144973 5.34106e-19 0 4.24622 -0.000289946 0 0 0 0.000144973)
(0.000169351 0 0 4.21294 -0.000338702 0 0 0 0.000169351)
(0.000153413 0 0 4.17962 -0.000306825 0 0 0 0.000153413)
(0.000164675 5.34106e-19 0 4.14626 -0.000329351 0 0 0 0.000164675)
(0.000159411 0 0 4.11287 -0.000318823 0 0 0 0.000159411)
(0.000161496 0 0 4.07943 -0.000322993 0 0 0 0.000161496)
(0.000162762 0 0 4.04596 -0.000325523 0 0 0 0.000162762)
(0.000159389 0 0 4.01246 -0.000318778 0 0 0 0.000159389)
(0.000163921 1.06821e-18 0 3.97891 -0.000327842 0 0 0 0.000163921)
(0.000157642 0 0 3.94533 -0.000315285 0 0 0 0.000157642)
(0.000163372 0 0 3.91172 -0.000326744 0 0 0 0.000163372)
(0.000155652 0 0 3.87807 -0.000311305 0 0 0 0.000155652)
(0.000161418 0 0 3.84439 -0.000322837 0 0 0 0.000161418)
(0.000153042 0 0 3.81067 -0.000306084 0 0 0 0.000153042)
(0.000158168 1.06821e-18 0 3.77693 -0.000316336 0 0 0 0.000158168)
(0.000149584 0 0 3.74314 -0.000299167 0 0 0 0.000149584)
(0.000153633 0 0 3.70933 -0.000307266 0 0 0 0.000153633)
(0.000145114 0 0 3.67549 -0.000290227 0 0 0 0.000145114)
(0.000147867 0 0 3.64161 -0.000295734 0 0 0 0.000147867)
(0.000139442 0 0 3.6077 -0.000278885 0 0 0 0.000139442)
(0.000140954 1.06821e-18 0 3.57377 -0.000281908 0 0 0 0.000140954)
(0.000132449 0 0 3.53981 -0.000264898 0 0 0 0.000132449)
(0.000132876 0 0 3.50581 -0.000265751 0 0 0 0.000132876)
(0.000124196 0 0 3.47179 -0.000248391 0 0 0 0.000124196)
(0.000123504 0 0 3.43775 -0.000247007 0 0 0 0.000123504)
(0.000114791 0 0 3.40367 -0.000229583 0 0 0 0.000114791)
(0.000112774 2.13642e-18 0 3.36958 -0.000225548 0 0 0 0.000112774)
(0.000104159 0 0 3.33545 -0.000208318 0 0 0 0.000104159)
(0.000100813 0 0 3.30131 -0.000201626 0 0 0 0.000100813)
(9.22916e-05 0 0 3.26713 -0.000184583 0 0 0 9.22916e-05)
(8.77106e-05 0 0 3.23294 -0.000175421 0 0 0 8.77106e-05)
(7.96727e-05 0 0 3.19873 -0.000159345 0 0 0 7.96727e-05)
(7.34157e-05 0 0 3.16449 -0.000146831 0 0 0 7.34157e-05)
(6.49346e-05 0 0 3.13023 -0.000129869 0 0 0 6.49346e-05)
(5.77558e-05 0 0 3.09595 -0.000115512 0 0 0 5.77558e-05)
(4.81445e-05 0 0 3.06166 -9.6289e-05 0 0 0 4.81445e-05)
(4.2502e-05 0 0 3.02734 -8.5004e-05 0 0 0 4.2502e-05)
(2.4613e-05 0 0 3.01275 -4.92261e-05 0 0 0 2.4613e-05)
(-3.14856e-06 0 0 3.14723 6.29712e-06 0 0 0 -3.14856e-06)
(-5.4174e-05 0 0 3.07127 0.000108348 0 0 0 -5.4174e-05)
(-7.72092e-05 9.48543e-19 0 3.00127 0.000154418 0 0 0 -7.72092e-05)
(-6.50194e-05 0 0 2.92529 0.000130039 0 0 0 -6.50194e-05)
(-5.5545e-05 0 0 2.85532 0.00011109 0 0 0 -5.5545e-05)
(-2.15346e-05 0 0 2.77943 4.30693e-05 0 0 0 -2.15346e-05)
(-1.33419e-05 0 0 2.70944 2.66838e-05 0 0 0 -1.33419e-05)
(-5.89742e-06 0 0 2.63372 1.17948e-05 0 0 0 -5.89742e-06)
(-4.46749e-06 3.81214e-21 0 2.56376 8.93497e-06 0 0 0 -4.46749e-06)
(-2.24712e-06 0 0 2.48814 4.49424e-06 0 0 0 -2.24712e-06)
(-1.6201e-06 0 0 2.41822 3.2402e-06 0 0 0 -1.6201e-06)
(-1.10215e-06 -1.97311e-22 0 2.34265 2.20431e-06 0 0 0 -1.10215e-06)
(-9.23824e-07 0 0 2.27274 1.84765e-06 0 0 0 -9.23824e-07)
(-7.64453e-07 0 0 2.19719 1.52891e-06 0 0 0 -7.64453e-07)
(-7.2364e-07 0 0 2.12729 1.44728e-06 0 0 0 -7.2364e-07)
(-6.45581e-07 -6.3224e-22 0 2.05175 1.29116e-06 0 0 0 -6.45581e-07)
(-6.7027e-07 0 0 1.98187 1.34054e-06 0 0 0 -6.7027e-07)
(-5.86145e-07 0 0 1.90636 1.17229e-06 0 0 0 -5.86145e-07)
(-6.77873e-07 0 0 1.8365 1.35575e-06 0 0 0 -6.77873e-07)
(-5.47738e-07 0 0 1.76103 1.09548e-06 0 0 0 -5.47738e-07)
(-7.05567e-07 0 0 1.69121 1.41113e-06 0 0 0 -7.05567e-07)
(-5.20114e-07 0 0 1.61578 1.04023e-06 0 0 0 -5.20114e-07)
(-7.657e-07 0 0 1.54599 1.5314e-06 0 0 0 -7.657e-07)
(-4.81189e-07 0 0 1.4706 9.62378e-07 0 0 0 -4.81189e-07)
(-8.34102e-07 0 0 1.40085 1.6682e-06 0 0 0 -8.34102e-07)
(-4.55555e-07 0 0 1.32552 9.11109e-07 0 0 0 -4.55555e-07)
(-8.8352e-07 0 0 1.2558 1.76704e-06 0 0 0 -8.8352e-07)
(-4.5219e-07 -1.29834e-21 0 1.18053 9.04381e-07 0 0 0 -4.5219e-07)
(-9.27133e-07 0 0 1.11085 1.85427e-06 0 0 0 -9.27133e-07)
(-4.19385e-07 0 0 1.03565 8.38769e-07 0 0 0 -4.19385e-07)
(-9.9112e-07 0 0 0.96601 1.98224e-06 0 0 0 -9.9112e-07)
(-4.94258e-07 0 0 0.890895 9.88516e-07 0 0 0 -4.94258e-07)
(-1.13491e-06 0 0 0.82129 2.26981e-06 0 0 0 -1.13491e-06)
(-1.17381e-07 -1.28944e-21 0 0.746272 2.34763e-07 0 0 0 -1.17381e-07)
(1.42406e-06 0 0 0.676713 -2.84812e-06 0 0 0 1.42406e-06)
(1.25044e-06 0 0 0.601811 -2.50088e-06 0 0 0 1.25044e-06)
(-1.19154e-05 0 0 0.532313 2.38307e-05 0 0 0 -1.19154e-05)
(-3.119e-05 0 0 0.457498 6.238e-05 0 0 0 -3.119e-05)
(1.42797e-05 0 0 0.387998 -2.85594e-05 0 0 0 1.42797e-05)
(0.000180601 0 0 0.31355 -0.000361202 0 0 0 0.000180601)
(0.000222228 0 0 0.245553 -0.000444457 0 0 0 0.000222228)
(-0.000418516 0 0 0.17229 0.000837031 0 0 0 -0.000418516)
(-0.000497044 0 0 0.0969014 0.000994088 0 0 0 -0.000497044)
(1.04972e-05 0 0 0.00130731 -2.09945e-05 0 0 0 1.04972e-05)
(-2.50151e-08 0 0 2.24689e-06 5.00301e-08 0 0 0 -2.50151e-08)
(2.7791e-08 0 0 3.1645e-07 -5.55819e-08 0 0 0 2.7791e-08)
(3.23512e-08 0 0 3.17351e-07 -6.47024e-08 0 0 0 3.23512e-08)
(-1.06146e-09 0 0 3.18961e-07 2.12293e-09 0 0 0 -1.06146e-09)
(5.45462e-10 0 0 3.20388e-07 -1.09092e-09 0 0 0 5.45462e-10)
(6.29219e-10 0 0 3.2027e-07 -1.25844e-09 0 0 0 6.29219e-10)
(2.38926e-10 0 0 3.19901e-07 -4.77852e-10 0 0 0 2.38926e-10)
(5.97578e-11 0 0 3.20006e-07 -1.19516e-10 0 0 0 5.97578e-11)
(1.61152e-11 0 0 3.20009e-07 -3.22305e-11 0 0 0 1.61152e-11)
(6.18175e-12 0 0 3.19996e-07 -1.23635e-11 0 0 0 6.18175e-12)
(2.45561e-12 0 0 3.20001e-07 -4.91123e-12 0 0 0 2.45561e-12)
(8.81595e-13 0 0 3.2e-07 -1.76319e-12 0 0 0 8.81595e-13)
(3.06476e-13 0 0 3.2e-07 -6.12951e-13 0 0 0 3.06476e-13)
(1.09514e-13 0 0 3.2e-07 -2.19028e-13 0 0 0 1.09514e-13)
(4.21291e-14 0 0 3.2e-07 -8.42582e-14 0 0 0 4.21291e-14)
(1.80876e-14 0 0 3.2e-07 -3.61753e-14 0 0 0 1.80876e-14)
(8.8616e-15 0 0 3.2e-07 -1.77232e-14 0 0 0 8.8616e-15)
(5.29962e-15 0 0 3.2e-07 -1.05992e-14 0 0 0 5.29962e-15)
(3.90976e-15 0 0 3.2e-07 -7.81952e-15 0 0 0 3.90976e-15)
(3.1242e-15 0 0 3.2e-07 -6.2484e-15 0 0 0 3.1242e-15)
(2.08422e-15 0 0 3.2e-07 -4.16843e-15 0 0 0 2.08422e-15)
(-2.13238e-16 0 0 3.2e-07 4.26476e-16 0 0 0 -2.13238e-16)
(-5.88278e-15 0 0 3.2e-07 1.17656e-14 0 0 0 -5.88278e-15)
(-1.99489e-14 0 0 3.2e-07 3.98977e-14 0 0 0 -1.99489e-14)
(-5.37798e-14 0 0 3.2e-07 1.0756e-13 0 0 0 -5.37798e-14)
(-1.30661e-13 0 0 3.2e-07 2.61323e-13 0 0 0 -1.30661e-13)
(-2.94729e-13 0 0 3.2e-07 5.89458e-13 0 0 0 -2.94729e-13)
(-6.33494e-13 0 0 3.2e-07 1.26699e-12 0 0 0 -6.33494e-13)
(-1.3598e-12 0 0 3.2e-07 2.71959e-12 0 0 0 -1.3598e-12)
(-3.05593e-12 0 0 3.2e-07 6.11186e-12 0 0 0 -3.05593e-12)
(-7.21573e-12 0 0 3.2e-07 1.44315e-11 0 0 0 -7.21573e-12)
(-1.6306e-11 0 0 3.2e-07 3.2612e-11 0 0 0 -1.6306e-11)
(-4.84323e-11 0 0 3.2e-07 9.68646e-11 0 0 0 -4.84323e-11)
(-7.06582e-12 0 0 3.20001e-07 1.41316e-11 0 0 0 -7.06582e-12)
(5.82053e-13 0 0 3.20001e-07 -1.16411e-12 0 0 0 5.82053e-13)
(1.10126e-10 -3.74636e-17 0 2.50592e-07 -2.20251e-10 0 0 0 1.10124e-10)
(-1.81594e-11 0 0 -3.2e-07 3.63188e-11 0 0 0 -1.81594e-11)
(-1.81593e-11 0 0 -3.2e-07 3.63186e-11 0 0 0 -1.81593e-11)
(-8.07279e-11 0 0 2.04488e-07 1.61456e-10 0 0 0 -8.07279e-11)
(3.14556e-11 0 0 3.19999e-07 -6.29113e-11 0 0 0 3.14556e-11)
(3.48429e-11 0 0 3.19999e-07 -6.96857e-11 0 0 0 3.48429e-11)
(4.56206e-11 0 0 3.2e-07 -9.12412e-11 0 0 0 4.56206e-11)
(-6.51819e-11 0 0 3.2e-07 1.30364e-10 0 0 0 -6.51819e-11)
(-1.22503e-11 0 0 3.2e-07 2.45006e-11 0 0 0 -1.22503e-11)
(-7.7997e-12 0 0 3.2e-07 1.55994e-11 0 0 0 -7.7997e-12)
(1.41103e-11 0 0 6.53012e-09 -2.82207e-11 0 0 0 1.41103e-11)
(1.00867e-11 0 0 -3.2e-07 -2.01734e-11 0 0 0 1.00867e-11)
(1.41835e-11 0 0 -3.2e-07 -2.83669e-11 0 0 0 1.41835e-11)
(8.5298e-11 0 0 -3.2e-07 -1.70596e-10 0 0 0 8.5298e-11)
(4.72402e-11 0 0 -3.19999e-07 -9.44803e-11 0 0 0 4.72402e-11)
(2.85056e-11 0 0 -3.19999e-07 -5.70112e-11 0 0 0 2.85056e-11)
(1.68043e-11 0 0 -3.19999e-07 -3.36085e-11 0 0 0 1.68043e-11)
(9.92903e-12 0 0 -3.19999e-07 -1.98581e-11 0 0 0 9.92903e-12)
(5.86334e-12 0 0 -3.19999e-07 -1.17267e-11 0 0 0 5.86334e-12)
(3.4473e-12 6.15774e-23 0 -3.19999e-07 -6.89461e-12 0 0 0 3.4473e-12)
(1.99383e-12 0 0 -3.19999e-07 -3.98766e-12 0 0 0 1.99383e-12)
(1.1211e-12 0 0 -3.2e-07 -2.2422e-12 0 0 0 1.1211e-12)
(6.10122e-13 0 0 -3.2e-07 -1.22024e-12 0 0 0 6.10122e-13)
(3.2263e-13 0 0 -3.2e-07 -6.45261e-13 0 0 0 3.2263e-13)
(1.67576e-13 0 0 -3.2e-07 -3.35153e-13 0 0 0 1.67576e-13)
(8.68647e-14 0 0 -3.2e-07 -1.73729e-13 0 0 0 8.68647e-14)
(4.58501e-14 0 0 -3.2e-07 -9.17001e-14 0 0 0 4.58501e-14)
(2.5277e-14 0 0 -3.2e-07 -5.05541e-14 0 0 0 2.5277e-14)
(1.50094e-14 0 0 -3.2e-07 -3.00189e-14 0 0 0 1.50094e-14)
(9.87612e-15 0 0 -3.2e-07 -1.97522e-14 0 0 0 9.87612e-15)
(7.27365e-15 0 0 -3.2e-07 -1.45473e-14 0 0 0 7.27365e-15)
(5.90319e-15 0 0 -3.2e-07 -1.18064e-14 0 0 0 5.90319e-15)
(5.12875e-15 0 0 -3.2e-07 -1.02575e-14 0 0 0 5.12875e-15)
(4.64681e-15 0 0 -3.2e-07 -9.29362e-15 0 0 0 4.64681e-15)
(4.31351e-15 0 0 -3.2e-07 -8.62702e-15 0 0 0 4.31351e-15)
(4.05848e-15 0 0 -3.2e-07 -8.11696e-15 0 0 0 4.05848e-15)
(3.84682e-15 0 0 -3.2e-07 -7.69364e-15 0 0 0 3.84682e-15)
(3.6628e-15 0 0 -3.2e-07 -7.32559e-15 0 0 0 3.6628e-15)
(3.50008e-15 0 0 -3.2e-07 -7.00015e-15 0 0 0 3.50008e-15)
(3.35461e-15 0 0 -3.2e-07 -6.70922e-15 0 0 0 3.35461e-15)
(3.22186e-15 0 0 -3.2e-07 -6.44372e-15 0 0 0 3.22186e-15)
(3.09809e-15 0 0 -3.2e-07 -6.19617e-15 0 0 0 3.09809e-15)
(2.98209e-15 0 0 -3.2e-07 -5.96418e-15 0 0 0 2.98209e-15)
(2.87432e-15 0 0 -3.2e-07 -5.74865e-15 0 0 0 2.87432e-15)
(2.77385e-15 0 0 -3.2e-07 -5.5477e-15 0 0 0 2.77385e-15)
(2.67538e-15 0 0 -3.2e-07 -5.35076e-15 0 0 0 2.67538e-15)
(2.56588e-15 0 0 -3.2e-07 -5.13177e-15 0 0 0 2.56588e-15)
(2.41379e-15 0 0 -3.2e-07 -4.82758e-15 0 0 0 2.41379e-15)
(2.13208e-15 0 0 -3.2e-07 -4.26415e-15 0 0 0 2.13208e-15)
(1.46521e-15 0 0 -3.2e-07 -2.93041e-15 0 0 0 1.46521e-15)
(-3.49027e-16 0 0 -3.2e-07 6.98055e-16 0 0 0 -3.49027e-16)
(-5.60276e-15 0 0 -3.2e-07 1.12055e-14 0 0 0 -5.60276e-15)
(-2.12583e-14 0 0 -3.2e-07 4.25167e-14 0 0 0 -2.12583e-14)
(-6.86939e-14 0 0 -3.2e-07 1.37388e-13 0 0 0 -6.86939e-14)
(-2.14253e-13 0 0 -3.2e-07 4.28506e-13 0 0 0 -2.14253e-13)
(-6.65959e-13 0 0 -3.2e-07 1.33192e-12 0 0 0 -6.65959e-13)
(-2.08272e-12 0 0 -3.2e-07 4.16545e-12 0 0 0 -2.08272e-12)
(-6.57274e-12 1.08215e-23 0 -3.2e-07 1.31455e-11 0 0 0 -6.57274e-12)
(-2.09494e-11 0 0 -3.2e-07 4.18988e-11 0 0 0 -2.09494e-11)
(-6.7443e-11 -1.03694e-23 0 -3.2e-07 1.34886e-10 0 0 0 -6.7443e-11)
(-2.1928e-10 1.01591e-23 0 -3.19998e-07 4.38559e-10 0 0 0 -2.1928e-10)
(-7.17825e-10 0 0 -3.19985e-07 1.43565e-09 0 0 0 -7.17825e-10)
(-2.38742e-09 -9.91182e-24 0 -3.1984e-07 4.77484e-09 0 0 0 -2.38742e-09)
(-7.93278e-09 0 0 -3.18225e-07 1.58656e-08 0 0 0 -7.93278e-09)
(-3.24146e-08 0 0 -2.88942e-07 6.48292e-08 0 0 0 -3.24146e-08)
)
;

boundaryField
{
    inlet
    {
        type            cyclic;
    }
    outlet
    {
        type            cyclic;
    }
    top
    {
        type            extrapolatedCalculated;
        value           uniform (-4.48268e-08 0 0 -2.57352e-07 8.96536e-08 0 0 0 -4.48268e-08);
    }
    bottom
    {
        type            extrapolatedCalculated;
        value           uniform (-0.0176811 0 0 4.84464 0.0353622 0 0 0 -0.0176811);
    }
    frontAndBackPlanes
    {
        type            empty;
    }
}


// ************************************************************************* //
