/*--------------------------------*- C++ -*----------------------------------*\
| =========                 |                                                 |
| \\      /  F ield         | OpenFOAM: The Open Source CFD Toolbox           |
|  \\    /   O peration     | Version:  2206                                  |
|   \\  /    A nd           | Website:  www.openfoam.com                      |
|    \\/     M anipulation  |                                                 |
\*---------------------------------------------------------------------------*/
FoamFile
{
    version     2.0;
    format      ascii;
    arch        "LSB;label=32;scalar=64";
    class       volTensorField;
    location    "250";
    object      Taub;
}
// * * * * * * * * * * * * * * * * * * * * * * * * * * * * * * * * * * * * * //

dimensions      [1 -1 -2 0 0 0 0];

internalField   nonuniform List<tensor> 
200
(
(-1.00394e-07 0 0 0.00695284 2.00788e-07 0 0 0 -1.00394e-07)
(7.04018e-08 0 0 0.00253905 -1.40804e-07 0 0 0 7.04018e-08)
(1.98582e-09 0 0 0.00104188 -3.97164e-09 0 0 0 1.98582e-09)
(-1.79073e-08 -1.51178e-23 0 0.000533249 3.58147e-08 0 0 0 -1.79073e-08)
(-9.1016e-09 0 0 0.000359416 1.82032e-08 0 0 0 -9.1016e-09)
(-1.54383e-08 -1.51165e-23 0 0.00029941 3.08766e-08 0 0 0 -1.54383e-08)
(-8.6761e-09 1.5116e-23 0 0.000277755 1.73522e-08 0 0 0 -8.6761e-09)
(-1.46627e-08 0 0 0.000269277 2.93254e-08 0 0 0 -1.46627e-08)
(-1.03231e-08 0 0 0.000265166 2.06462e-08 0 0 0 -1.03231e-08)
(-1.36618e-08 0 0 0.000262583 2.73237e-08 0 0 0 -1.36618e-08)
(-1.17568e-08 0 0 0.00026051 2.35137e-08 0 0 0 -1.17568e-08)
(-1.29681e-08 0 0 0.000258592 2.59362e-08 0 0 0 -1.29681e-08)
(-1.26972e-08 0 0 0.000256757 2.53943e-08 0 0 0 -1.26972e-08)
(-1.27304e-08 0 0 0.000254914 2.54609e-08 0 0 0 -1.27304e-08)
(-1.32003e-08 0 0 0.000253102 2.64005e-08 0 0 0 -1.32003e-08)
(-1.28148e-08 -6.04381e-23 0 0.000251271 2.56296e-08 0 0 0 -1.28148e-08)
(-1.34304e-08 0 0 0.000249455 2.68608e-08 0 0 0 -1.34304e-08)
(-1.30256e-08 0 0 0.00024763 2.60513e-08 0 0 0 -1.30256e-08)
(-1.35118e-08 -6.04295e-23 0 0.000245808 2.70236e-08 0 0 0 -1.35118e-08)
(-1.32441e-08 0 0 0.000243987 2.64883e-08 0 0 0 -1.32441e-08)
(-1.35435e-08 0 0 0.000242161 2.70869e-08 0 0 0 -1.35435e-08)
(-1.34276e-08 0 0 0.000240341 2.68551e-08 0 0 0 -1.34276e-08)
(-1.35557e-08 0 0 0.000238513 2.71113e-08 0 0 0 -1.35557e-08)
(-1.35313e-08 0 0 0.000236695 2.70626e-08 0 0 0 -1.35313e-08)
(-1.3526e-08 0 0 0.000234865 2.70519e-08 0 0 0 -1.3526e-08)
(-1.35451e-08 0 0 0.000233048 2.70901e-08 0 0 0 -1.35451e-08)
(-1.34567e-08 -6.04034e-23 0 0.000231219 2.69133e-08 0 0 0 -1.34567e-08)
(-1.34836e-08 0 0 0.000229402 2.69672e-08 0 0 0 -1.34836e-08)
(-1.33313e-08 0 0 0.000227574 2.66626e-08 0 0 0 -1.33313e-08)
(-1.3332e-08 0 0 0.000225758 2.6664e-08 0 0 0 -1.3332e-08)
(-1.31311e-08 0 0 0.000223933 2.62621e-08 0 0 0 -1.31311e-08)
(-1.30989e-08 0 0 0.000222118 2.61979e-08 0 0 0 -1.30989e-08)
(-1.28594e-08 -1.20764e-22 0 0.000220295 2.57188e-08 0 0 0 -1.28594e-08)
(-1.27732e-08 0 0 0.000218482 2.55465e-08 0 0 0 -1.27732e-08)
(-1.24829e-08 0 0 0.000216662 2.49659e-08 0 0 0 -1.24829e-08)
(-1.23358e-08 0 0 0.000214851 2.46715e-08 0 0 0 -1.23358e-08)
(-1.20103e-08 0 0 0.000213036 2.40207e-08 0 0 0 -1.20103e-08)
(-1.18129e-08 0 0 0.000211228 2.36257e-08 0 0 0 -1.18129e-08)
(-1.14456e-08 0 0 0.000209418 2.28913e-08 0 0 0 -1.14456e-08)
(-1.11833e-08 0 0 0.000207614 2.23666e-08 0 0 0 -1.11833e-08)
(-1.077e-08 0 0 0.00020581 2.154e-08 0 0 0 -1.077e-08)
(-1.04533e-08 0 0 0.000204011 2.09065e-08 0 0 0 -1.04533e-08)
(-9.99744e-09 0 0 0.000202214 1.99949e-08 0 0 0 -9.99744e-09)
(-9.61298e-09 -1.20674e-22 0 0.000200421 1.9226e-08 0 0 0 -9.61298e-09)
(-9.10603e-09 -1.20665e-22 0 0.000198632 1.82121e-08 0 0 0 -9.10603e-09)
(-8.66394e-09 0 0 0.000196847 1.73279e-08 0 0 0 -8.66394e-09)
(-8.12342e-09 0 0 0.000195068 1.62468e-08 0 0 0 -8.12342e-09)
(-7.62399e-09 0 0 0.000193296 1.5248e-08 0 0 0 -7.62399e-09)
(-7.05171e-09 0 0 0.000191536 1.41034e-08 0 0 0 -7.05171e-09)
(-6.50092e-09 0 0 0.000189802 1.30018e-08 0 0 0 -6.50092e-09)
(-5.8776e-09 0 0 0.000188134 1.17552e-08 0 0 0 -5.8776e-09)
(-5.24061e-09 0 0 0.000186644 1.04812e-08 0 0 0 -5.24061e-09)
(-4.55161e-09 -1.20587e-22 0 0.000185668 9.10323e-09 0 0 0 -4.55161e-09)
(-3.93472e-09 0 0 0.000186166 7.86943e-09 0 0 0 -3.93472e-09)
(-3.14625e-09 0 0 0.000190957 6.2925e-09 0 0 0 -3.14625e-09)
(-1.8037e-09 0 0 0.000208222 3.6074e-09 0 0 0 -1.8037e-09)
(1.22855e-09 0 0 0.000260414 -2.45711e-09 0 0 0 1.22855e-09)
(6.6327e-09 0 0 0.000397174 -1.32654e-08 0 0 0 6.6327e-09)
(1.49056e-08 -1.20519e-22 0 0.000721441 -2.98112e-08 0 0 0 1.49056e-08)
(2.76161e-08 0 0 0.00145782 -5.52321e-08 0 0 0 2.76161e-08)
(3.8309e-08 0 0 0.00309021 -7.6618e-08 0 0 0 3.8309e-08)
(4.92108e-08 0 0 0.00658962 -9.84215e-08 0 0 0 4.92108e-08)
(5.76415e-08 0 0 0.0136953 -1.15283e-07 0 0 0 5.76415e-08)
(7.60429e-08 0 0 0.027034 -1.52086e-07 0 0 0 7.60429e-08)
(9.16253e-08 -6.02206e-23 0 0.0496352 -1.83251e-07 0 0 0 9.16253e-08)
(1.07814e-07 0 0 0.0835967 -2.15629e-07 0 0 0 1.07814e-07)
(1.1613e-07 0 0 0.128501 -2.3226e-07 0 0 0 1.1613e-07)
(1.2827e-07 0 0 0.181024 -2.56541e-07 0 0 0 1.2827e-07)
(1.38997e-07 0 0 0.236379 -2.77993e-07 0 0 0 1.38997e-07)
(1.53604e-07 0 0 0.290472 -3.07209e-07 0 0 0 1.53604e-07)
(1.67953e-07 0 0 0.341176 -3.35907e-07 0 0 0 1.67953e-07)
(1.87388e-07 1.20331e-22 0 0.388194 -3.74777e-07 0 0 0 1.87388e-07)
(2.05143e-07 0 0 0.432267 -4.10287e-07 0 0 0 2.05143e-07)
(2.32603e-07 0 0 0.474367 -4.65207e-07 0 0 0 2.32603e-07)
(2.52957e-07 2.40554e-22 0 0.515324 -5.05915e-07 0 0 0 2.52957e-07)
(2.92072e-07 0 0 0.555663 -5.84145e-07 0 0 0 2.92072e-07)
(3.14388e-07 0 0 0.5957 -6.28777e-07 0 0 0 3.14388e-07)
(3.71367e-07 4.80857e-22 0 0.635568 -7.42735e-07 0 0 0 3.71367e-07)
(3.92737e-07 0 0 0.67535 -7.85475e-07 0 0 0 3.92737e-07)
(4.74815e-07 0 0 0.715055 -9.4963e-07 0 0 0 4.74815e-07)
(4.90762e-07 0 0 0.754716 -9.81524e-07 0 0 0 4.90762e-07)
(6.05879e-07 0 0 0.794319 -1.21176e-06 0 0 0 6.05879e-07)
(6.17926e-07 0 0 0.833894 -1.23585e-06 0 0 0 6.17926e-07)
(7.73311e-07 9.60499e-22 0 0.873417 -1.54662e-06 0 0 0 7.73311e-07)
(7.85097e-07 0 0 0.912921 -1.57019e-06 0 0 0 7.85097e-07)
(9.99464e-07 0 0 0.952374 -1.99893e-06 0 0 0 9.99464e-07)
(9.76873e-07 0 0 0.991815 -1.95375e-06 0 0 0 9.76873e-07)
(1.15128e-06 0 0 1.0312 -2.30256e-06 0 0 0 1.15128e-06)
(1.01225e-06 0 0 1.07058 -2.02449e-06 0 0 0 1.01225e-06)
(1.80591e-06 1.91752e-21 0 1.1099 -3.61182e-06 0 0 0 1.80591e-06)
(3.7928e-06 0 0 1.14922 -7.58561e-06 0 0 0 3.7928e-06)
(3.34776e-06 0 0 1.18847 -6.69552e-06 0 0 0 3.34776e-06)
(-1.47449e-05 0 0 1.22773 2.94897e-05 0 0 0 -1.47449e-05)
(-4.58157e-05 0 0 1.26693 9.16313e-05 0 0 0 -4.58157e-05)
(3.24675e-05 0 0 1.30606 -6.4935e-05 0 0 0 3.24675e-05)
(0.000398093 0 0 1.34465 -0.000796186 0 0 0 0.000398093)
(0.000508495 0 0 1.38286 -0.00101699 0 0 0 0.000508495)
(-0.00192336 0 0 1.42297 0.00384672 0 0 0 -0.00192336)
(-0.00313697 0 0 1.54803 0.00627393 0 0 0 -0.00313697)
(0.000331914 0 0 1.54652 -0.000663828 0 0 0 0.000331914)
(0.00124079 0 0 1.24094 -0.00248158 0 0 0 0.00124079)
(0.000535045 0 0 1.46297 -0.00107009 0 0 0 0.000535045)
(-0.000120706 0 0 1.43071 0.000241413 0 0 0 -0.000120706)
(-8.80333e-05 0 0 1.39812 0.000176067 0 0 0 -8.80333e-05)
(-7.29951e-05 0 0 1.36553 0.00014599 0 0 0 -7.29951e-05)
(6.24608e-06 0 0 1.33294 -1.24922e-05 0 0 0 6.24608e-06)
(1.41513e-05 0 0 1.30036 -2.83027e-05 0 0 0 1.41513e-05)
(1.361e-06 0 0 1.26777 -2.722e-06 0 0 0 1.361e-06)
(-9.80208e-07 0 0 1.23518 1.96042e-06 0 0 0 -9.80208e-07)
(-1.50842e-07 0 0 1.20259 3.01683e-07 0 0 0 -1.50842e-07)
(2.31222e-08 0 0 1.17 -4.62443e-08 0 0 0 2.31222e-08)
(3.474e-09 0 0 1.13741 -6.94799e-09 0 0 0 3.474e-09)
(2.50393e-09 0 0 1.10482 -5.00785e-09 0 0 0 2.50393e-09)
(1.88812e-10 0 0 1.07223 -3.77625e-10 0 0 0 1.88812e-10)
(-7.30126e-10 0 0 1.03963 1.46025e-09 0 0 0 -7.30126e-10)
(-6.93467e-11 0 0 1.00704 1.38693e-10 0 0 0 -6.93467e-11)
(9.70035e-11 0 0 0.974443 -1.94007e-10 0 0 0 9.70035e-11)
(1.07851e-11 0 0 0.941847 -2.15703e-11 0 0 0 1.07851e-11)
(-7.723e-12 0 0 0.909251 1.5446e-11 0 0 0 -7.723e-12)
(-2.42803e-12 0 0 0.876655 4.85606e-12 0 0 0 -2.42803e-12)
(-1.26108e-12 0 0 0.844058 2.52217e-12 0 0 0 -1.26108e-12)
(-6.14518e-13 0 0 0.811461 1.22904e-12 0 0 0 -6.14518e-13)
(3.30071e-13 0 0 0.778864 -6.60143e-13 0 0 0 3.30071e-13)
(1.12921e-12 0 0 0.746266 -2.25842e-12 0 0 0 1.12921e-12)
(1.59244e-12 0 0 0.713669 -3.18487e-12 0 0 0 1.59244e-12)
(1.61702e-12 0 0 0.681071 -3.23405e-12 0 0 0 1.61702e-12)
(1.13873e-12 0 0 0.648473 -2.27745e-12 0 0 0 1.13873e-12)
(4.1352e-13 0 0 0.615875 -8.27039e-13 0 0 0 4.1352e-13)
(-6.43579e-13 0 0 0.583278 1.28716e-12 0 0 0 -6.43579e-13)
(-1.26568e-12 0 0 0.55068 2.53136e-12 0 0 0 -1.26568e-12)
(-1.48173e-12 0 0 0.518083 2.96346e-12 0 0 0 -1.48173e-12)
(-1.90849e-12 0 0 0.485486 3.81697e-12 0 0 0 -1.90849e-12)
(-3.68325e-13 0 0 0.452889 7.36651e-13 0 0 0 -3.68325e-13)
(-6.24409e-14 0 0 0.420293 1.24882e-13 0 0 0 -6.24409e-14)
(2.74915e-13 0 0 0.387697 -5.49831e-13 0 0 0 2.74915e-13)
(2.6303e-12 3.6933e-28 0 0.355101 -5.25735e-12 0 0 0 2.62705e-12)
(1.07906e-12 0 0 0.322506 -2.15812e-12 0 0 0 1.07906e-12)
(3.73334e-13 0 0 0.289912 -7.46669e-13 0 0 0 3.73334e-13)
(1.9254e-12 0 0 0.257318 -3.85079e-12 0 0 0 1.9254e-12)
(-1.1191e-12 0 0 0.224725 2.2382e-12 0 0 0 -1.1191e-12)
(-2.75314e-12 0 0 0.192132 5.50629e-12 0 0 0 -2.75314e-12)
(6.55065e-15 0 0 0.15954 -1.31013e-14 0 0 0 6.55065e-15)
(-9.57892e-13 0 0 0.126949 1.91578e-12 0 0 0 -9.57892e-13)
(-2.69571e-12 0 0 0.0943587 5.39141e-12 0 0 0 -2.69571e-12)
(1.02877e-12 0 0 0.0617692 -2.05753e-12 0 0 0 1.02877e-12)
(3.20033e-12 0 0 0.0291805 -6.40065e-12 0 0 0 3.20033e-12)
(2.32271e-13 0 0 -0.00340718 -4.64542e-13 0 0 0 2.32271e-13)
(-1.29145e-13 0 0 -0.035994 2.58289e-13 0 0 0 -1.29145e-13)
(2.6178e-12 0 0 -0.0685798 -5.2356e-12 0 0 0 2.6178e-12)
(9.50077e-13 0 0 -0.101165 -1.90015e-12 0 0 0 9.50077e-13)
(-3.38599e-12 0 0 -0.133748 6.77198e-12 0 0 0 -3.38599e-12)
(-2.7873e-12 0 0 -0.166331 5.57459e-12 0 0 0 -2.7873e-12)
(7.70057e-13 0 0 -0.198912 -1.54011e-12 0 0 0 7.70057e-13)
(4.74038e-13 0 0 -0.231493 -9.48075e-13 0 0 0 4.74038e-13)
(-1.80256e-12 -3.6933e-28 0 -0.264072 3.60187e-12 0 0 0 -1.79931e-12)
(-5.53361e-14 0 0 -0.29665 1.10672e-13 0 0 0 -5.53361e-14)
(3.73127e-12 0 0 -0.329227 -7.46253e-12 0 0 0 3.73127e-12)
(3.16118e-12 0 0 -0.361802 -6.32235e-12 0 0 0 3.16118e-12)
(-1.12995e-12 0 0 -0.394376 2.2599e-12 0 0 0 -1.12995e-12)
(-2.85129e-12 0 0 -0.426949 5.70258e-12 0 0 0 -2.85129e-12)
(-6.08209e-13 0 0 -0.45952 1.21642e-12 0 0 0 -6.08209e-13)
(7.48095e-13 0 0 -0.49209 -1.49619e-12 0 0 0 7.48095e-13)
(-1.11455e-12 0 0 -0.524659 2.22911e-12 0 0 0 -1.11455e-12)
(-2.43606e-12 0 0 -0.557226 4.87212e-12 0 0 0 -2.43606e-12)
(2.85799e-15 0 0 -0.589792 -5.71597e-15 0 0 0 2.85799e-15)
(3.49372e-12 0 0 -0.622356 -6.98745e-12 0 0 0 3.49372e-12)
(3.41599e-12 0 0 -0.654919 -6.83198e-12 0 0 0 3.41599e-12)
(-1.17147e-13 0 0 -0.68748 2.34294e-13 0 0 0 -1.17147e-13)
(-2.73873e-12 0 0 -0.720039 5.47746e-12 0 0 0 -2.73873e-12)
(-1.94229e-12 0 0 -0.752597 3.88457e-12 0 0 0 -1.94229e-12)
(1.45126e-13 0 0 -0.785153 -2.90252e-13 0 0 0 1.45126e-13)
(4.65137e-13 0 0 -0.817708 -9.30274e-13 0 0 0 4.65137e-13)
(-7.25982e-13 0 0 -0.85026 1.45196e-12 0 0 0 -7.25982e-13)
(-7.78722e-13 0 0 -0.882812 1.55744e-12 0 0 0 -7.78722e-13)
(1.19783e-12 0 0 -0.915361 -2.39566e-12 0 0 0 1.19783e-12)
(2.89077e-12 0 0 -0.947909 -5.78154e-12 0 0 0 2.89077e-12)
(1.80064e-12 0 0 -0.980455 -3.60129e-12 0 0 0 1.80064e-12)
(-1.42331e-12 0 0 -1.013 2.84662e-12 0 0 0 -1.42331e-12)
(-3.55424e-12 0 0 -1.04554 7.10849e-12 0 0 0 -3.55424e-12)
(-2.42567e-12 0 0 -1.07808 4.85133e-12 0 0 0 -2.42567e-12)
(7.43278e-13 0 0 -1.11062 -1.48656e-12 0 0 0 7.43278e-13)
(2.83078e-12 0 0 -1.14316 -5.66156e-12 0 0 0 2.83078e-12)
(2.13896e-12 0 0 -1.17569 -4.27791e-12 0 0 0 2.13896e-12)
(-1.42646e-13 0 0 -1.20823 2.85292e-13 0 0 0 -1.42646e-13)
(-1.58481e-12 0 0 -1.24076 3.16962e-12 0 0 0 -1.58481e-12)
(-1.12133e-12 0 0 -1.27329 2.24266e-12 0 0 0 -1.12133e-12)
(1.90153e-13 0 0 -1.30581 -3.80306e-13 0 0 0 1.90153e-13)
(7.02596e-13 0 0 -1.33834 -1.40519e-12 0 0 0 7.02596e-13)
(3.49624e-14 0 0 -1.37086 -6.99248e-14 0 0 0 3.49624e-14)
(-7.36414e-13 0 0 -1.40338 1.47283e-12 0 0 0 -7.36414e-13)
(-5.03176e-13 0 0 -1.4359 1.00635e-12 0 0 0 -5.03176e-13)
(5.68631e-13 0 0 -1.46842 -1.13726e-12 0 0 0 5.68631e-13)
(1.26103e-12 2.30831e-29 0 -1.50094 -2.52205e-12 0 0 0 1.26103e-12)
(7.01341e-13 0 0 -1.53345 -1.40268e-12 0 0 0 7.01341e-13)
(-6.66195e-13 -3.6933e-28 0 -1.56596 1.3332e-12 0 0 0 -6.67007e-13)
(-1.47644e-12 2.30831e-29 0 -1.59847 2.95206e-12 0 0 0 -1.47562e-12)
(-7.77636e-13 0 0 -1.63098 1.55527e-12 0 0 0 -7.77636e-13)
(6.56965e-13 0 0 -1.66349 -1.31352e-12 0 0 0 6.56559e-13)
(1.20226e-12 0 0 -1.69599 -2.40452e-12 0 0 0 1.20226e-12)
(-4.37178e-13 1.84665e-28 0 -1.72849 8.74306e-13 0 0 0 -4.37128e-13)
)
;

boundaryField
{
    inlet
    {
        type            cyclic;
    }
    outlet
    {
        type            cyclic;
    }
    top
    {
        type            extrapolatedCalculated;
        value           uniform (-1.95626e-12 1.84665e-28 0 -1.74474 3.91247e-12 0 0 0 -1.95621e-12);
    }
    bottom
    {
        type            extrapolatedCalculated;
        value           uniform (-2.82112e-07 0 0 0.010248 5.64224e-07 0 0 0 -2.82112e-07);
    }
    frontAndBackPlanes
    {
        type            empty;
    }
}


// ************************************************************************* //
