/*--------------------------------*- C++ -*----------------------------------*\
| =========                 |                                                 |
| \\      /  F ield         | OpenFOAM: The Open Source CFD Toolbox           |
|  \\    /   O peration     | Version:  2206                                  |
|   \\  /    A nd           | Website:  www.openfoam.com                      |
|    \\/     M anipulation  |                                                 |
\*---------------------------------------------------------------------------*/
FoamFile
{
    version     2.0;
    format      ascii;
    arch        "LSB;label=32;scalar=64";
    class       volVectorField;
    location    "250";
    object      U.a;
}
// * * * * * * * * * * * * * * * * * * * * * * * * * * * * * * * * * * * * * //

dimensions      [0 1 -1 0 0 0 0];

internalField   nonuniform List<vector> 
200
(
(6.61557e-08 7.2433e-10 0)
(1.97759e-07 1.39107e-10 0)
(3.28534e-07 -1.64274e-10 0)
(4.58439e-07 7.54056e-11 0)
(5.87459e-07 -1.36802e-10 0)
(7.15589e-07 1.61445e-12 0)
(8.42826e-07 -1.12285e-10 0)
(9.69168e-07 -6.13774e-11 0)
(1.09461e-06 -1.05153e-10 0)
(1.21916e-06 -1.06476e-10 0)
(1.34281e-06 -1.15918e-10 0)
(1.46556e-06 -1.3758e-10 0)
(1.58741e-06 -1.38287e-10 0)
(1.70836e-06 -1.61471e-10 0)
(1.82841e-06 -1.65964e-10 0)
(1.94755e-06 -1.83247e-10 0)
(2.06578e-06 -1.95013e-10 0)
(2.18311e-06 -2.05567e-10 0)
(2.29954e-06 -2.23647e-10 0)
(2.41505e-06 -2.29323e-10 0)
(2.52966e-06 -2.51398e-10 0)
(2.64335e-06 -2.54462e-10 0)
(2.75613e-06 -2.78382e-10 0)
(2.868e-06 -2.80584e-10 0)
(2.97896e-06 -3.04846e-10 0)
(3.089e-06 -3.07255e-10 0)
(3.19813e-06 -3.30964e-10 0)
(3.30634e-06 -3.34116e-10 0)
(3.41363e-06 -3.56797e-10 0)
(3.52e-06 -3.60887e-10 0)
(3.62545e-06 -3.82303e-10 0)
(3.72999e-06 -3.87338e-10 0)
(3.8336e-06 -4.07381e-10 0)
(3.93629e-06 -4.13256e-10 0)
(4.03806e-06 -4.31893e-10 0)
(4.1389e-06 -4.38432e-10 0)
(4.23882e-06 -4.55672e-10 0)
(4.33781e-06 -4.62662e-10 0)
(4.43588e-06 -4.78521e-10 0)
(4.53302e-06 -4.85759e-10 0)
(4.62923e-06 -5.00225e-10 0)
(4.72451e-06 -5.07533e-10 0)
(4.81887e-06 -5.20577e-10 0)
(4.91229e-06 -5.27771e-10 0)
(5.00478e-06 -5.39387e-10 0)
(5.09634e-06 -5.46251e-10 0)
(5.18697e-06 -5.56455e-10 0)
(5.27666e-06 -5.62771e-10 0)
(5.36543e-06 -5.71579e-10 0)
(5.45325e-06 -5.77143e-10 0)
(5.54015e-06 -5.84634e-10 0)
(5.6261e-06 -5.89174e-10 0)
(5.71113e-06 -5.95275e-10 0)
(5.79521e-06 -5.98638e-10 0)
(5.87836e-06 -6.03164e-10 0)
(5.96057e-06 -6.05603e-10 0)
(6.04292e-06 -6.07197e-10 0)
(6.13711e-06 -6.05073e-10 0)
(6.27213e-06 -5.95068e-10 0)
(6.50634e-06 -5.76577e-10 0)
(6.97974e-06 -5.47885e-10 0)
(8.04229e-06 -4.8694e-10 0)
(1.05561e-05 -4.64757e-10 0)
(1.64612e-05 -3.6257e-10 0)
(2.954e-05 -3.37231e-10 0)
(5.57016e-05 -1.57435e-10 0)
(0.000102002 -1.40903e-10 0)
(0.000174252 8.08363e-11 0)
(0.000275191 1.03539e-10 0)
(0.000404301 3.61368e-10 0)
(0.000559378 4.00166e-10 0)
(0.000737924 7.01833e-10 0)
(0.00093808 7.57639e-10 0)
(0.00115866 1.12871e-09 0)
(0.00139908 1.18287e-09 0)
(0.00165905 1.68281e-09 0)
(0.00193847 1.68617e-09 0)
(0.00223726 2.40649e-09 0)
(0.00255543 2.28197e-09 0)
(0.00289293 3.38072e-09 0)
(0.00324978 2.96355e-09 0)
(0.00362593 4.69006e-09 0)
(0.00402141 3.75913e-09 0)
(0.00443617 6.40021e-09 0)
(0.00487026 4.73456e-09 0)
(0.00532363 8.62226e-09 0)
(0.00579633 5.85958e-09 0)
(0.00628831 1.15915e-08 0)
(0.00679963 7.52944e-09 0)
(0.00733025 1.5911e-08 0)
(0.00788025 8.03935e-09 0)
(0.00844956 8.84466e-09 0)
(0.00903828 8.20842e-10 0)
(0.0096464 8.92151e-08 0)
(0.0102741 2.53579e-07 0)
(0.0109214 -5.15601e-08 0)
(0.0115878 -2.01639e-06 0)
(0.0122716 -3.71733e-06 0)
(0.0129745 8.08922e-06 0)
(0.0137162 1.85125e-05 0)
(0.0150791 -4.26074e-05 0)
(0.0168617 0.00012357 0)
(0.0186294 -0.000977987 0)
(0.0203418 -0.000940734 0)
(0.0220076 -0.00094426 0)
(0.0236304 -0.00095753 0)
(0.0252158 -0.000963169 0)
(0.0267637 -0.000964551 0)
(0.0282721 -0.000964881 0)
(0.0297411 -0.000965001 0)
(0.0311709 -0.000965049 0)
(0.0325613 -0.000965066 0)
(0.0339125 -0.000965071 0)
(0.0352244 -0.000965073 0)
(0.036497 -0.000965074 0)
(0.0377304 -0.000965074 0)
(0.0389244 -0.000965074 0)
(0.0400792 -0.000965075 0)
(0.0411946 -0.000965075 0)
(0.0422708 -0.000965075 0)
(0.0433077 -0.000965075 0)
(0.0443053 -0.000965075 0)
(0.0452636 -0.000965075 0)
(0.0461826 -0.000965075 0)
(0.0470623 -0.000965074 0)
(0.0479028 -0.000965074 0)
(0.0487046 -0.000965072 0)
(0.0494679 -0.000965069 0)
(0.0501902 -0.000965063 0)
(0.0508631 -0.000965052 0)
(0.0514735 -0.000965027 0)
(0.0520358 -0.000964972 0)
(0.0526829 -0.000964842 0)
(0.0541712 -0.000964003 0)
(0.0645002 -0.000964059 0)
(0.0645003 -0.000964059 0)
(0.0645002 -0.000964059 0)
(0.0437089 -0.000960519 0)
(0.0437089 -0.000960519 0)
(0.0437089 -0.000960519 0)
(0.0547931 -0.000963788 0)
(0.0558544 -0.000964487 0)
(0.0563259 -0.000964444 0)
(0.0574894 -0.000963488 0)
(0.0771998 -0.000962046 0)
(0.0771998 -0.000962046 0)
(0.0771998 -0.000962046 0)
(0.0574912 -0.00096391 0)
(0.0564553 -0.000964805 0)
(0.0562253 -0.000964922 0)
(0.0560804 -0.000964971 0)
(0.0559274 -0.000965002 0)
(0.0557331 -0.000965026 0)
(0.0554863 -0.000965043 0)
(0.0551899 -0.000965055 0)
(0.0548504 -0.000965064 0)
(0.0544715 -0.000965069 0)
(0.0540541 -0.000965072 0)
(0.0535981 -0.000965074 0)
(0.053103 -0.000965075 0)
(0.0525686 -0.000965075 0)
(0.051995 -0.000965076 0)
(0.0513821 -0.000965076 0)
(0.05073 -0.000965076 0)
(0.0500386 -0.000965076 0)
(0.049308 -0.000965076 0)
(0.0485381 -0.000965076 0)
(0.0477289 -0.000965076 0)
(0.0468806 -0.000965076 0)
(0.045993 -0.000965076 0)
(0.0450661 -0.000965076 0)
(0.0441 -0.000965076 0)
(0.0430947 -0.000965076 0)
(0.0420501 -0.000965076 0)
(0.0409663 -0.000965077 0)
(0.0398433 -0.000965077 0)
(0.038681 -0.000965077 0)
(0.0374795 -0.000965077 0)
(0.0362388 -0.000965077 0)
(0.0349589 -0.000965077 0)
(0.0336398 -0.000965077 0)
(0.0322814 -0.000965077 0)
(0.0308838 -0.000965077 0)
(0.029447 -0.000965077 0)
(0.027971 -0.000965077 0)
(0.0264558 -0.000965077 0)
(0.0249013 -0.000965077 0)
(0.0233077 -0.000965077 0)
(0.0216749 -0.000965076 0)
(0.0200029 -0.000965075 0)
(0.0182916 -0.000965069 0)
(0.0165412 -0.000965053 0)
(0.0147516 -0.000965 0)
(0.0129228 -0.00096483 0)
(0.0110546 -0.000964274 0)
(0.00914663 -0.000962442 0)
(0.00720028 -0.000956351 0)
(0.00522693 -0.000936063 0)
(0.00325178 -0.000867931 0)
(0.00121752 -0.000636221 0)
)
;

boundaryField
{
    inlet
    {
        type            cyclic;
    }
    outlet
    {
        type            cyclic;
    }
    top
    {
        type            fixedValue;
        value           uniform (0 0 0);
    }
    bottom
    {
        type            fixedValue;
        value           uniform (0 0 0);
    }
    frontAndBackPlanes
    {
        type            empty;
    }
}


// ************************************************************************* //
