/*--------------------------------*- C++ -*----------------------------------*\
| =========                 |                                                 |
| \\      /  F ield         | OpenFOAM: The Open Source CFD Toolbox           |
|  \\    /   O peration     | Version:  2206                                  |
|   \\  /    A nd           | Website:  www.openfoam.com                      |
|    \\/     M anipulation  |                                                 |
\*---------------------------------------------------------------------------*/
FoamFile
{
    version     2.0;
    format      ascii;
    arch        "LSB;label=32;scalar=64";
    class       volVectorField;
    location    "250";
    object      U.b;
}
// * * * * * * * * * * * * * * * * * * * * * * * * * * * * * * * * * * * * * //

dimensions      [0 1 -1 0 0 0 0];

internalField   nonuniform List<vector> 
200
(
(2.47167e-06 2.04124e-10 0)
(4.23603e-06 8.64395e-11 0)
(4.92137e-06 3.50993e-13 0)
(5.24126e-06 8.06916e-11 0)
(5.43589e-06 5.21866e-11 0)
(5.58807e-06 1.07038e-10 0)
(5.72481e-06 9.68789e-11 0)
(5.8561e-06 1.32156e-10 0)
(5.98468e-06 1.3933e-10 0)
(6.11201e-06 1.62044e-10 0)
(6.23811e-06 1.78886e-10 0)
(6.36344e-06 1.96086e-10 0)
(6.48771e-06 2.16438e-10 0)
(6.61128e-06 2.32854e-10 0)
(6.73378e-06 2.53304e-10 0)
(6.85561e-06 2.71083e-10 0)
(6.97636e-06 2.90419e-10 0)
(7.09645e-06 3.09982e-10 0)
(7.21545e-06 3.28148e-10 0)
(7.33379e-06 3.49121e-10 0)
(7.45105e-06 3.66514e-10 0)
(7.56763e-06 3.88356e-10 0)
(7.68315e-06 4.05416e-10 0)
(7.79798e-06 4.2763e-10 0)
(7.91175e-06 4.44622e-10 0)
(8.02483e-06 4.66823e-10 0)
(8.13685e-06 4.83872e-10 0)
(8.24818e-06 5.05819e-10 0)
(8.35846e-06 5.22949e-10 0)
(8.46803e-06 5.44456e-10 0)
(8.57658e-06 5.6159e-10 0)
(8.68439e-06 5.82517e-10 0)
(8.7912e-06 5.99561e-10 0)
(8.89727e-06 6.19796e-10 0)
(9.00234e-06 6.36592e-10 0)
(9.10666e-06 6.55988e-10 0)
(9.20999e-06 6.7236e-10 0)
(9.31257e-06 6.90814e-10 0)
(9.41417e-06 7.06616e-10 0)
(9.51501e-06 7.24007e-10 0)
(9.61488e-06 7.3905e-10 0)
(9.71399e-06 7.55245e-10 0)
(9.81214e-06 7.69372e-10 0)
(9.90952e-06 7.84246e-10 0)
(1.0006e-05 7.9726e-10 0)
(1.01016e-05 8.10665e-10 0)
(1.01963e-05 8.22399e-10 0)
(1.02903e-05 8.34237e-10 0)
(1.03833e-05 8.44524e-10 0)
(1.04756e-05 8.54703e-10 0)
(1.05669e-05 8.63392e-10 0)
(1.06576e-05 8.71764e-10 0)
(1.07476e-05 8.78605e-10 0)
(1.08373e-05 8.84978e-10 0)
(1.09277e-05 8.9003e-10 0)
(1.10221e-05 8.94114e-10 0)
(1.11293e-05 8.95268e-10 0)
(1.12742e-05 8.90546e-10 0)
(1.15138e-05 8.76003e-10 0)
(1.19728e-05 8.47248e-10 0)
(1.29255e-05 7.95775e-10 0)
(1.49656e-05 7.35944e-10 0)
(1.93081e-05 6.52781e-10 0)
(2.82319e-05 5.68436e-10 0)
(4.54984e-05 4.31772e-10 0)
(7.63234e-05 3.02109e-10 0)
(0.000126505 1.1835e-10 0)
(0.000200857 -3.55273e-11 0)
(0.000301964 -2.54631e-10 0)
(0.000429998 -4.39749e-10 0)
(0.00058358 -7.01396e-10 0)
(0.000760817 -9.28312e-10 0)
(0.000960045 -1.24657e-09 0)
(0.00118008 -1.52523e-09 0)
(0.00142022 -1.9235e-09 0)
(0.00168006 -2.26151e-09 0)
(0.00195943 -2.77377e-09 0)
(0.00225822 -3.17689e-09 0)
(0.00257639 -3.85527e-09 0)
(0.00291392 -4.32082e-09 0)
(0.00327078 -5.23854e-09 0)
(0.00364696 -5.75084e-09 0)
(0.00404246 -7.00439e-09 0)
(0.00445727 -7.55218e-09 0)
(0.00489139 -9.25926e-09 0)
(0.00534481 -9.84198e-09 0)
(0.00581754 -1.21751e-08 0)
(0.00630958 -1.26927e-08 0)
(0.00682094 -1.55358e-08 0)
(0.00735163 -1.56485e-08 0)
(0.00790168 -2.08112e-08 0)
(0.00847107 -2.67321e-08 0)
(0.00905987 -3.05986e-08 0)
(0.0096681 1.6396e-08 0)
(0.0102958 1.03487e-07 0)
(0.010943 -7.86829e-08 0)
(0.0116094 -1.06321e-06 0)
(0.0122951 -1.57025e-06 0)
(0.0130025 4.58553e-06 0)
(0.0138135 7.6602e-06 0)
(0.0150198 3.28667e-06 0)
(0.0168023 -1.30539e-06 0)
(0.0185464 -5.82696e-07 0)
(0.0202512 -4.32458e-07 0)
(0.0219168 5.39485e-08 0)
(0.023543 9.54325e-08 0)
(0.02513 8.77776e-09 0)
(0.0266777 -6.90804e-09 0)
(0.0281861 -1.06481e-09 0)
(0.0296552 1.80692e-10 0)
(0.0310851 2.60549e-11 0)
(0.0324757 1.34758e-11 0)
(0.033827 9.31445e-13 0)
(0.035139 -4.63228e-12 0)
(0.0364117 -4.34021e-13 0)
(0.0376451 6.47896e-13 0)
(0.0388393 6.74855e-14 0)
(0.0399941 -5.36197e-14 0)
(0.0411097 -1.05111e-14 0)
(0.042186 2.23193e-15 0)
(0.043223 7.04808e-15 0)
(0.0442207 1.13519e-14 0)
(0.0451791 1.14922e-14 0)
(0.0460983 8.96488e-15 0)
(0.0469781 3.32591e-15 0)
(0.0478186 -2.5514e-15 0)
(0.0486199 -8.36818e-15 0)
(0.0493819 -1.07865e-14 0)
(0.0501045 -1.13587e-14 0)
(0.0507879 -6.13225e-15 0)
(0.051432 -2.20546e-15 0)
(0.0520368 4.58343e-15 0)
(0.0526023 1.15965e-14 0)
(0.0531286 7.24711e-15 0)
(0.0536155 1.2048e-14 0)
(0.0540632 5.25896e-15 0)
(0.0544715 -6.95828e-15 0)
(0.0548406 -2.54465e-15 0)
(0.0551704 -9.65819e-15 0)
(0.0554609 -1.64689e-14 0)
(0.0557121 -1.56501e-15 0)
(0.0559241 3.44151e-15 0)
(0.0560967 -1.61238e-15 0)
(0.0562301 1.03689e-14 0)
(0.0563242 1.78826e-14 0)
(0.056379 2.92896e-15 0)
(0.0563945 -5.26174e-15 0)
(0.0563708 1.24921e-15 0)
(0.0563077 -4.32778e-15 0)
(0.0562054 -1.76824e-14 0)
(0.0560639 -1.11986e-14 0)
(0.055883 6.80464e-15 0)
(0.0556629 8.95875e-15 0)
(0.0554035 1.23569e-15 0)
(0.0551049 5.53057e-15 0)
(0.0547669 1.42559e-14 0)
(0.0543898 5.93076e-15 0)
(0.0539733 -1.27281e-14 0)
(0.0535176 -1.69304e-14 0)
(0.0530226 -4.55646e-15 0)
(0.0524884 3.68971e-15 0)
(0.0519149 -1.57976e-16 0)
(0.0513021 -1.72041e-15 0)
(0.0506501 7.90233e-15 0)
(0.0499589 1.58968e-14 0)
(0.0492284 7.88166e-15 0)
(0.0484586 -9.36931e-15 0)
(0.0476496 -1.68223e-14 0)
(0.0468014 -8.52212e-15 0)
(0.0459139 2.98383e-15 0)
(0.0449871 5.52424e-15 0)
(0.0440212 1.93429e-15 0)
(0.0430159 2.16043e-15 0)
(0.0419715 7.1845e-15 0)
(0.0408878 7.79204e-15 0)
(0.0397649 -1.47806e-15 0)
(0.0386028 -1.31136e-14 0)
(0.0374014 -1.45001e-14 0)
(0.0361608 -2.82041e-15 0)
(0.034881 1.12037e-14 0)
(0.033562 1.47217e-14 0)
(0.0322037 5.82846e-15 0)
(0.0308062 -5.75014e-15 0)
(0.0293696 -9.64019e-15 0)
(0.0278937 -4.71854e-15 0)
(0.0263786 1.82094e-15 0)
(0.0248243 3.39078e-15 0)
(0.0232307 4.4578e-16 0)
(0.021598 -1.6903e-15 0)
(0.0199261 1.92936e-16 0)
(0.018215 3.63535e-15 0)
(0.0164647 3.83184e-15 0)
(0.0146752 -4.76918e-16 0)
(0.0128465 -5.28772e-15 0)
(0.0109786 -5.54892e-15 0)
(0.00907155 -4.65976e-16 0)
(0.0071253 5.12454e-15 0)
(0.00513987 5.15778e-15 0)
(0.00311527 3.7542e-16 0)
(0.00105148 -3.53679e-15 0)
)
;

boundaryField
{
    inlet
    {
        type            cyclic;
    }
    outlet
    {
        type            cyclic;
    }
    top
    {
        type            fixedValue;
        value           uniform (0 0 0);
    }
    bottom
    {
        type            fixedValue;
        value           uniform (0 0 0);
    }
    frontAndBackPlanes
    {
        type            empty;
    }
}


// ************************************************************************* //
