/*--------------------------------*- C++ -*----------------------------------*\
| =========                 |                                                 |
| \\      /  F ield         | OpenFOAM: The Open Source CFD Toolbox           |
|  \\    /   O peration     | Version:  v2006                                 |
|   \\  /    A nd           | Website:  www.openfoam.com                      |
|    \\/     M anipulation  |                                                 |
\*---------------------------------------------------------------------------*/
FoamFile
{
    version     2.0;
    format      ascii;
    class       volScalarField;
    location    "1100";
    object      p;
}
// * * * * * * * * * * * * * * * * * * * * * * * * * * * * * * * * * * * * * //

dimensions      [1 -1 -2 0 0 0 0];


internalField   nonuniform List<scalar> 
120
(
4.62405
-0.0361357
-4.69676
-9.35782
-14.0193
-18.6813
-23.3437
-28.0066
-32.67
-37.3339
-41.9982
-46.6631
-51.3284
-55.9943
-60.6607
-65.3276
-69.9951
-74.6631
-79.3316
-84.0008
-88.6705
-93.3408
-98.0116
-102.683
-107.355
-112.028
-116.701
-121.375
-126.05
-130.726
-135.402
-140.078
-144.756
-149.434
-154.113
-158.793
-163.474
-168.155
-172.837
-177.52
-182.204
-186.889
-191.575
-196.262
-200.95
-205.638
-210.328
-215.019
-219.711
-224.404
-229.099
-233.794
-238.491
-243.189
-247.889
-252.589
-257.292
-261.996
-266.702
-271.409
-276.119
-280.83
-285.544
-290.26
-294.978
-299.699
-304.423
-309.149
-313.88
-318.614
-323.354
-328.102
-332.861
-337.628
-342.387
-347.287
-352.201
-357.109
-362.016
-366.922
-371.827
-376.733
-381.638
-386.543
-391.448
-396.353
-401.258
-406.163
-411.068
-415.973
-420.877
-425.785
-430.691
-435.62
-440.341
-445.008
-449.666
-454.326
-458.985
-463.645
-468.305
-472.965
-477.624
-482.284
-486.944
-491.604
-496.263
-500.923
-505.583
-510.243
-514.902
-519.562
-524.222
-528.882
-533.541
-538.201
-542.861
-547.521
-552.18
-556.84
)
;

boundaryField
{
    inlet
    {
        type            cyclic;
    }
    outlet
    {
        type            cyclic;
    }
    top
    {
        type            calculated;
        value           uniform -559.17;
    }
    bottom
    {
        type            calculated;
        value           uniform 6.95392;
    }
    frontAndBackPlanes
    {
        type            empty;
    }
}


// ************************************************************************* //
