/*--------------------------------*- C++ -*----------------------------------*\
| =========                 |                                                 |
| \\      /  F ield         | OpenFOAM: The Open Source CFD Toolbox           |
|  \\    /   O peration     | Version:  v2006                                 |
|   \\  /    A nd           | Website:  www.openfoam.com                      |
|    \\/     M anipulation  |                                                 |
\*---------------------------------------------------------------------------*/
FoamFile
{
    version     2.0;
    format      ascii;
    class       volScalarField;
    location    "1100";
    object      pff;
}
// * * * * * * * * * * * * * * * * * * * * * * * * * * * * * * * * * * * * * //

dimensions      [1 -1 -2 0 0 0 0];


internalField   nonuniform List<scalar> 
120
(
19.4843
19.1909
18.8979
18.6054
18.3133
18.0218
17.7307
17.4401
17.15
16.8604
16.5713
16.2828
15.9948
15.7073
15.4203
15.1339
14.848
14.5628
14.2781
13.994
13.7104
13.4275
13.1452
12.8636
12.5826
12.3022
12.0225
11.7434
11.4651
11.1874
10.9105
10.6343
10.3588
10.084
9.81007
9.5369
9.26452
8.99297
8.72227
8.45243
8.18348
7.91543
7.64831
7.38214
7.11694
6.85273
6.58953
6.32735
6.06622
5.80617
5.54722
5.2894
5.03275
4.77732
4.52316
4.27034
4.01889
3.76889
3.52038
3.27336
3.02783
2.78372
2.54089
2.29914
2.05813
1.81723
1.57532
1.33131
1.08614
0.850112
0.642187
0.473178
0.337549
0.171362
0
0
0
0
0
0
0
0
0
0
0
0
0
0
0
0
0
0
0
0
0
0
0
0
0
0
0
0
0
0
0
0
0
0
0
0
0
0
0
0
0
0
0
0
0
0
)
;

boundaryField
{
    inlet
    {
        type            cyclic;
    }
    outlet
    {
        type            cyclic;
    }
    top
    {
        type            calculated;
        value           uniform 0;
    }
    bottom
    {
        type            calculated;
        value           uniform 19.4843;
    }
    frontAndBackPlanes
    {
        type            empty;
    }
}


// ************************************************************************* //
