/*--------------------------------*- C++ -*----------------------------------*\
| =========                 |                                                 |
| \\      /  F ield         | OpenFOAM: The Open Source CFD Toolbox           |
|  \\    /   O peration     | Version:  v2006                                 |
|   \\  /    A nd           | Website:  www.openfoam.com                      |
|    \\/     M anipulation  |                                                 |
\*---------------------------------------------------------------------------*/
FoamFile
{
    version     2.0;
    format      ascii;
    class       surfaceScalarField;
    location    "1100";
    object      phia;
}
// * * * * * * * * * * * * * * * * * * * * * * * * * * * * * * * * * * * * * //

dimensions      [0 3 -1 0 0 0 0];
oriented        oriented;


internalField   nonuniform List<scalar> 
119
(
-1.09917e-15
-2.2153e-15
-3.34883e-15
-4.50024e-15
-5.67003e-15
-6.8587e-15
-8.0668e-15
-9.29491e-15
-1.05436e-14
-1.18136e-14
-1.31055e-14
-1.44201e-14
-1.57581e-14
-1.71202e-14
-1.85074e-14
-1.99205e-14
-2.13604e-14
-2.2828e-14
-2.43244e-14
-2.58507e-14
-2.74077e-14
-2.89968e-14
-3.06191e-14
-3.22757e-14
-3.39681e-14
-3.56975e-14
-3.74653e-14
-3.92732e-14
-4.11227e-14
-4.30157e-14
-4.4954e-14
-4.69398e-14
-4.89754e-14
-5.10632e-14
-5.32061e-14
-5.5407e-14
-5.76693e-14
-5.99963e-14
-6.23919e-14
-6.48601e-14
-6.7405e-14
-7.00311e-14
-7.27428e-14
-7.55451e-14
-7.84429e-14
-8.1442e-14
-8.45482e-14
-8.77685e-14
-9.11111e-14
-9.45856e-14
-9.82039e-14
-1.0198e-13
-1.05933e-13
-1.10082e-13
-1.14453e-13
-1.19073e-13
-1.23976e-13
-1.29194e-13
-1.34763e-13
-1.40718e-13
-1.47093e-13
-1.53925e-13
-1.61256e-13
-1.69146e-13
-1.77695e-13
-1.87097e-13
-1.97744e-13
-2.10342e-13
-2.25094e-13
-2.45007e-13
-2.73772e-13
-3.12528e-13
-3.45661e-13
-3.89632e-13
-1.36936e-12
-1.91997e-12
-2.13443e-12
-2.23249e-12
-2.27969e-12
-2.30227e-12
-2.31318e-12
-2.31846e-12
-2.321e-12
-2.32221e-12
-2.32281e-12
-2.32301e-12
-2.32338e-12
-2.32339e-12
-2.31901e-12
-2.34015e-12
-2.27728e-12
-2.54499e-12
-2.74414e-12
-3.09339e-11
-9.20099e-12
-1.17854e-10
-8.22219e-11
-8.22879e-11
-8.22725e-11
-8.22757e-11
-8.2277e-11
-8.22767e-11
-8.22766e-11
-8.22766e-11
-8.22766e-11
-8.22766e-11
-8.22766e-11
-8.22766e-11
-8.22766e-11
-8.22766e-11
-8.22766e-11
-8.22766e-11
-8.22766e-11
-8.22766e-11
-8.22766e-11
-8.22766e-11
-8.22766e-11
-8.22565e-11
-8.21697e-11
)
;

boundaryField
{
    inlet
    {
        type            cyclic;
        value           nonuniform List<scalar> 
120
(
-5.59266e-28
-1.67864e-27
-2.79999e-27
-3.89431e-27
-4.99329e-27
-6.09833e-27
-7.21088e-27
-8.27176e-27
-9.34321e-27
-1.04875e-26
-1.16457e-26
-1.28197e-26
-1.40718e-26
-1.53436e-26
-1.6637e-26
-1.79542e-26
-1.92976e-26
-2.06695e-26
-2.20723e-26
-2.35088e-26
-2.49815e-26
-2.64934e-26
-2.80471e-26
-2.96458e-26
-3.15349e-26
-3.34752e-26
-3.54698e-26
-3.74009e-26
-3.93931e-26
-4.145e-26
-4.33327e-26
-4.5045e-26
-4.68331e-26
-4.87011e-26
-5.0653e-26
-5.26897e-26
-5.50616e-26
-5.77769e-26
-6.03526e-26
-6.32785e-26
-6.5833e-26
-6.87489e-26
-7.15477e-26
-7.44781e-26
-7.75467e-26
-8.10024e-26
-8.41248e-26
-8.74054e-26
-9.06083e-26
-9.44676e-26
-9.85035e-26
-1.02721e-25
-1.07124e-25
-1.11714e-25
-1.16494e-25
-1.21705e-25
-1.27102e-25
-1.32682e-25
-1.38446e-25
-1.43888e-25
-1.49473e-25
-1.55191e-25
-1.61015e-25
-1.66905e-25
-1.72813e-25
-1.78188e-25
-1.84004e-25
-1.89775e-25
-1.95638e-25
-2.01887e-25
-2.10325e-25
-2.24259e-25
-2.45874e-25
-2.70945e-25
-3.03992e-25
-1.22339e-23
-1.35779e-23
-1.43587e-23
-1.58415e-23
-1.82097e-23
-2.15281e-23
-2.58455e-23
-3.12036e-23
-3.76358e-23
-4.51646e-23
-5.38854e-23
-4.48399e-23
-3.69589e-23
-3.01211e-23
-2.42866e-23
-1.94138e-23
-1.54949e-23
-1.26283e-23
-1.08043e-23
-1.05411e-23
-9.94131e-24
-9.36091e-24
-8.80414e-24
-8.27013e-24
-7.75618e-24
-7.26074e-24
-6.78263e-24
-6.32072e-24
-5.87418e-24
-5.44206e-24
-5.02371e-24
-4.61822e-24
-4.22501e-24
-3.84316e-24
-3.47202e-24
-3.11069e-24
-2.7584e-24
-2.41424e-24
-2.07741e-24
-1.74688e-24
-1.42179e-24
-1.10115e-24
-7.84005e-25
-4.69358e-25
-1.56231e-25
)
;
    }
    outlet
    {
        type            cyclic;
        value           nonuniform List<scalar> 
120
(
5.59266e-28
1.67864e-27
2.79999e-27
3.89431e-27
4.99329e-27
6.09833e-27
7.21088e-27
8.27176e-27
9.34321e-27
1.04875e-26
1.16457e-26
1.28197e-26
1.40718e-26
1.53436e-26
1.6637e-26
1.79542e-26
1.92976e-26
2.06695e-26
2.20723e-26
2.35088e-26
2.49815e-26
2.64934e-26
2.80471e-26
2.96458e-26
3.15349e-26
3.34752e-26
3.54698e-26
3.74009e-26
3.93931e-26
4.145e-26
4.33327e-26
4.5045e-26
4.68331e-26
4.87011e-26
5.0653e-26
5.26897e-26
5.50616e-26
5.77769e-26
6.03526e-26
6.32785e-26
6.5833e-26
6.87489e-26
7.15477e-26
7.44781e-26
7.75467e-26
8.10024e-26
8.41248e-26
8.74054e-26
9.06083e-26
9.44676e-26
9.85035e-26
1.02721e-25
1.07124e-25
1.11714e-25
1.16494e-25
1.21705e-25
1.27102e-25
1.32682e-25
1.38446e-25
1.43888e-25
1.49473e-25
1.55191e-25
1.61015e-25
1.66905e-25
1.72813e-25
1.78188e-25
1.84004e-25
1.89775e-25
1.95638e-25
2.01887e-25
2.10325e-25
2.24259e-25
2.45874e-25
2.70945e-25
3.03992e-25
1.22339e-23
1.35779e-23
1.43587e-23
1.58415e-23
1.82097e-23
2.15281e-23
2.58455e-23
3.12036e-23
3.76358e-23
4.51646e-23
5.38854e-23
4.48399e-23
3.69589e-23
3.01211e-23
2.42866e-23
1.94138e-23
1.54949e-23
1.26283e-23
1.08043e-23
1.05411e-23
9.94131e-24
9.36091e-24
8.80414e-24
8.27013e-24
7.75618e-24
7.26074e-24
6.78263e-24
6.32072e-24
5.87418e-24
5.44206e-24
5.02371e-24
4.61822e-24
4.22501e-24
3.84316e-24
3.47202e-24
3.11069e-24
2.7584e-24
2.41424e-24
2.07741e-24
1.74688e-24
1.42179e-24
1.10115e-24
7.84005e-25
4.69358e-25
1.56231e-25
)
;
    }
    top
    {
        type            fixedValue;
        value           uniform 0;
    }
    bottom
    {
        type            fixedValue;
        value           uniform 0;
    }
    frontAndBackPlanes
    {
        type            empty;
        value           nonuniform List<scalar> 0();
    }
}


// ************************************************************************* //
