/*--------------------------------*- C++ -*----------------------------------*\
| =========                 |                                                 |
| \\      /  F ield         | OpenFOAM: The Open Source CFD Toolbox           |
|  \\    /   O peration     | Version:  v2006                                 |
|   \\  /    A nd           | Website:  www.openfoam.com                      |
|    \\/     M anipulation  |                                                 |
\*---------------------------------------------------------------------------*/
FoamFile
{
    version     2.0;
    format      ascii;
    class       surfaceScalarField;
    location    "1100";
    object      phib;
}
// * * * * * * * * * * * * * * * * * * * * * * * * * * * * * * * * * * * * * //

dimensions      [0 3 -1 0 0 0 0];
oriented        oriented;


internalField   nonuniform List<scalar> 
119
(
1.64072e-15
3.30588e-15
4.99612e-15
6.7121e-15
8.45451e-15
1.02241e-14
1.20216e-14
1.38478e-14
1.57037e-14
1.759e-14
1.95078e-14
2.1458e-14
2.34417e-14
2.54601e-14
2.75142e-14
2.96054e-14
3.17348e-14
3.39039e-14
3.6114e-14
3.83666e-14
4.06631e-14
4.30052e-14
4.53945e-14
4.78327e-14
5.03215e-14
5.28629e-14
5.54587e-14
5.81113e-14
6.08227e-14
6.35956e-14
6.64324e-14
6.93363e-14
7.23102e-14
7.53579e-14
7.8483e-14
8.16897e-14
8.49825e-14
8.83664e-14
9.18464e-14
9.54281e-14
9.91171e-14
1.0292e-13
1.06842e-13
1.1089e-13
1.15071e-13
1.19393e-13
1.23864e-13
1.28492e-13
1.33289e-13
1.38268e-13
1.43446e-13
1.48841e-13
1.54478e-13
1.60386e-13
1.66599e-13
1.73157e-13
1.801e-13
1.87477e-13
1.95333e-13
2.03714e-13
2.12664e-13
2.22227e-13
2.32455e-13
2.43419e-13
2.55249e-13
2.68196e-13
2.82778e-13
2.99948e-13
3.19917e-13
3.46898e-13
3.86038e-13
4.38783e-13
4.82218e-13
5.14587e-13
1.61449e-12
2.06624e-12
2.20637e-12
2.26775e-12
2.29682e-12
2.31055e-12
2.31718e-12
2.32038e-12
2.32192e-12
2.32265e-12
2.32302e-12
2.32315e-12
2.32335e-12
2.32332e-12
2.32076e-12
2.33516e-12
2.28862e-12
2.43041e-12
2.40778e-12
9.44826e-12
2.90576e-14
8.02849e-16
1.03331e-17
1.03508e-17
9.78106e-18
9.43557e-18
8.58694e-18
7.98979e-18
6.99891e-18
6.40965e-18
5.73243e-18
5.46601e-18
5.00087e-18
4.74751e-18
4.28215e-18
3.96686e-18
3.47263e-18
3.17977e-18
2.85152e-18
2.72539e-18
2.51294e-18
2.40908e-18
2.21342e-18
2.10507e-18
1.91019e-18
)
;

boundaryField
{
    inlet
    {
        type            cyclic;
        value           nonuniform List<scalar> 
120
(
-5.59266e-28
-1.67866e-27
-2.804e-27
-3.89432e-27
-4.99329e-27
-6.09843e-27
-7.23281e-27
-8.27173e-27
-9.31398e-27
-1.04874e-26
-1.16456e-26
-1.2779e-26
-1.40717e-26
-1.53436e-26
-1.6637e-26
-1.79542e-26
-1.92976e-26
-2.06695e-26
-2.20723e-26
-2.35088e-26
-2.49815e-26
-2.64933e-26
-2.80455e-26
-2.9274e-26
-3.15333e-26
-3.34761e-26
-3.5686e-26
-3.74019e-26
-3.93954e-26
-4.19494e-26
-4.38545e-26
-4.50473e-26
-4.68332e-26
-4.87011e-26
-5.06501e-26
-5.20458e-26
-5.43947e-26
-5.84647e-26
-5.96408e-26
-6.4772e-26
-6.50639e-26
-6.95551e-26
-7.15513e-26
-7.44741e-26
-7.66488e-26
-8.28798e-26
-8.41378e-26
-8.84091e-26
-8.85103e-26
-9.44581e-26
-9.85035e-26
-1.02721e-25
-1.07124e-25
-1.11708e-25
-1.15178e-25
-1.21699e-25
-1.27102e-25
-1.32696e-25
-1.41532e-25
-1.43902e-25
-1.49473e-25
-1.55191e-25
-1.61015e-25
-1.66924e-25
-1.7683e-25
-1.73966e-25
-1.83984e-25
-1.89775e-25
-1.95639e-25
-2.01923e-25
-2.1631e-25
-2.24336e-25
-2.45958e-25
-2.71528e-25
-3.76239e-25
-1.22336e-23
-1.35779e-23
-1.43587e-23
-1.58416e-23
-1.82097e-23
-2.15281e-23
-2.58456e-23
-3.12036e-23
-3.76358e-23
-4.51646e-23
-5.37979e-23
-4.48399e-23
-3.6959e-23
-3.01211e-23
-2.42866e-23
-1.94138e-23
-1.54949e-23
-1.26284e-23
-1.08044e-23
-1.0541e-23
-9.94017e-24
-9.3601e-24
-8.80421e-24
-8.2702e-24
-7.75623e-24
-7.26081e-24
-6.78268e-24
-6.32079e-24
-5.87422e-24
-5.44213e-24
-5.02374e-24
-4.61829e-24
-4.22504e-24
-3.84322e-24
-3.47205e-24
-3.11074e-24
-2.75844e-24
-2.4143e-24
-2.07743e-24
-1.74692e-24
-1.42182e-24
-1.10119e-24
-7.84042e-25
-4.69393e-25
-1.56249e-25
)
;
    }
    outlet
    {
        type            cyclic;
        value           nonuniform List<scalar> 
120
(
5.59266e-28
1.67866e-27
2.804e-27
3.89432e-27
4.99329e-27
6.09843e-27
7.23281e-27
8.27173e-27
9.31398e-27
1.04874e-26
1.16456e-26
1.2779e-26
1.40717e-26
1.53436e-26
1.6637e-26
1.79542e-26
1.92976e-26
2.06695e-26
2.20723e-26
2.35088e-26
2.49815e-26
2.64933e-26
2.80455e-26
2.9274e-26
3.15333e-26
3.34761e-26
3.5686e-26
3.74019e-26
3.93954e-26
4.19494e-26
4.38545e-26
4.50473e-26
4.68332e-26
4.87011e-26
5.06501e-26
5.20458e-26
5.43947e-26
5.84647e-26
5.96408e-26
6.4772e-26
6.50639e-26
6.95551e-26
7.15513e-26
7.44741e-26
7.66488e-26
8.28798e-26
8.41378e-26
8.84091e-26
8.85103e-26
9.44581e-26
9.85035e-26
1.02721e-25
1.07124e-25
1.11708e-25
1.15178e-25
1.21699e-25
1.27102e-25
1.32696e-25
1.41532e-25
1.43902e-25
1.49473e-25
1.55191e-25
1.61015e-25
1.66924e-25
1.7683e-25
1.73966e-25
1.83984e-25
1.89775e-25
1.95639e-25
2.01923e-25
2.1631e-25
2.24336e-25
2.45958e-25
2.71528e-25
3.76239e-25
1.22336e-23
1.35779e-23
1.43587e-23
1.58416e-23
1.82097e-23
2.15281e-23
2.58456e-23
3.12036e-23
3.76358e-23
4.51646e-23
5.37979e-23
4.48399e-23
3.6959e-23
3.01211e-23
2.42866e-23
1.94138e-23
1.54949e-23
1.26284e-23
1.08044e-23
1.0541e-23
9.94017e-24
9.3601e-24
8.80421e-24
8.2702e-24
7.75623e-24
7.26081e-24
6.78268e-24
6.32079e-24
5.87422e-24
5.44213e-24
5.02374e-24
4.61829e-24
4.22504e-24
3.84322e-24
3.47205e-24
3.11074e-24
2.75844e-24
2.4143e-24
2.07743e-24
1.74692e-24
1.42182e-24
1.10119e-24
7.84042e-25
4.69393e-25
1.56249e-25
)
;
    }
    top
    {
        type            fixedValue;
        value           uniform 0;
    }
    bottom
    {
        type            fixedValue;
        value           uniform 0;
    }
    frontAndBackPlanes
    {
        type            empty;
        value           nonuniform List<scalar> 0();
    }
}


// ************************************************************************* //
