/*--------------------------------*- C++ -*----------------------------------*\
| =========                 |                                                 |
| \\      /  F ield         | OpenFOAM: The Open Source CFD Toolbox           |
|  \\    /   O peration     | Version:  v2006                                 |
|   \\  /    A nd           | Website:  www.openfoam.com                      |
|    \\/     M anipulation  |                                                 |
\*---------------------------------------------------------------------------*/
FoamFile
{
    version     2.0;
    format      ascii;
    class       volTensorField;
    location    "1100";
    object      Taua;
}
// * * * * * * * * * * * * * * * * * * * * * * * * * * * * * * * * * * * * * //

dimensions      [1 -1 -2 0 0 0 0];


internalField   nonuniform List<tensor> 
120
(
(0.00213988 0 0 7.83269e-15 -0.00427975 0 0 0 0.00213988)
(0.00216767 0 0 7.84256e-15 -0.00433533 0 0 0 0.00216767)
(0.00220387 0 0 7.75483e-15 -0.00440773 0 0 0 0.00220387)
(0.00223905 0 0 7.67653e-15 -0.0044781 0 0 0 0.00223905)
(0.0022746 0 0 7.71409e-15 -0.00454921 0 0 0 0.0022746)
(0.00231129 0 0 7.76158e-15 -0.00462258 0 0 0 0.00231129)
(0.00234909 0 0 7.60701e-15 -0.00469818 0 0 0 0.00234909)
(0.002388 0 0 7.46314e-15 -0.004776 0 0 0 0.002388)
(0.00242809 0 0 7.75514e-15 -0.00485617 0 0 0 0.00242809)
(0.00246942 0 0 8.05885e-15 -0.00493884 0 0 0 0.00246942)
(0.00251207 0 0 8.16251e-15 -0.00502414 0 0 0 0.00251207)
(0.00255611 0 0 8.49135e-15 -0.00511221 0 0 0 0.00255611)
(0.0026016 0 0 8.83374e-15 -0.00520321 0 0 0 0.0026016)
(0.00264864 0 0 8.97805e-15 -0.00529729 0 0 0 0.00264864)
(0.0026973 0 0 9.13728e-15 -0.0053946 0 0 0 0.0026973)
(0.00274765 0 0 9.31214e-15 -0.00549531 0 0 0 0.00274765)
(0.00279978 0 0 9.50335e-15 -0.00559956 0 0 0 0.00279978)
(0.00285376 0 0 9.71162e-15 -0.00570753 0 0 0 0.00285376)
(0.00290968 0 0 9.93768e-15 -0.00581937 0 0 0 0.00290968)
(0.00296762 0 0 1.01822e-14 -0.00593524 0 0 0 0.00296762)
(0.00302766 0 0 1.04459e-14 -0.00605531 0 0 0 0.00302766)
(0.00308988 0 0 1.07295e-14 -0.00617976 0 0 0 0.00308988)
(0.00315439 0 0 1.10336e-14 -0.00630878 0 0 0 0.00315439)
(0.00322128 0 0 1.22073e-14 -0.00644256 0 0 0 0.00322128)
(0.00329067 0 0 1.34028e-14 -0.00658134 0 0 0 0.00329067)
(0.0033627 0 0 1.37721e-14 -0.0067254 0 0 0 0.0033627)
(0.00343752 0 0 1.37401e-14 -0.00687504 0 0 0 0.00343752)
(0.00351532 0 0 1.37318e-14 -0.00703064 0 0 0 0.00351532)
(0.00359631 0 0 1.41718e-14 -0.00719262 0 0 0 0.00359631)
(0.00368076 0 0 1.37885e-14 -0.00736152 0 0 0 0.00368076)
(0.00376896 0 0 1.25826e-14 -0.00753792 0 0 0 0.00376896)
(0.00386125 0 0 1.22516e-14 -0.0077225 0 0 0 0.00386125)
(0.00395802 0 0 1.27964e-14 -0.00791604 0 0 0 0.00395802)
(0.00405969 0 0 1.33694e-14 -0.00811939 0 0 0 0.00405969)
(0.00416673 0 0 1.39599e-14 -0.00833345 0 0 0 0.00416673)
(0.0042796 3.68135e-17 0 1.54301e-14 -0.0085592 0 0 0 0.0042796)
(0.0043988 0 0 1.78053e-14 -0.00879761 0 0 0 0.0043988)
(0.00452483 0 0 1.85188e-14 -0.00904966 0 0 0 0.00452483)
(0.00465814 0 0 1.92555e-14 -0.00931629 0 0 0 0.00465814)
(0.00479919 0 0 1.91811e-14 -0.00959839 0 0 0 0.00479919)
(0.00494839 0 0 1.91466e-14 -0.00989678 0 0 0 0.00494839)
(0.00510613 0 0 2.00017e-14 -0.0102123 0 0 0 0.00510613)
(0.00527279 0 0 2.00523e-14 -0.0105456 0 0 0 0.00527279)
(0.00544881 0 0 2.09963e-14 -0.0108976 0 0 0 0.00544881)
(0.00563476 0 0 2.2835e-14 -0.0112695 0 0 0 0.00563476)
(0.0058314 0 0 2.30235e-14 -0.0116628 0 0 0 0.0058314)
(0.00603987 0 0 2.24105e-14 -0.0120797 0 0 0 0.00603987)
(0.0062618 0 0 2.26923e-14 -0.0125236 0 0 0 0.0062618)
(0.00649948 0 0 2.47176e-14 -0.012999 0 0 0 0.00649948)
(0.00675605 0 0 2.76332e-14 -0.0135121 0 0 0 0.00675605)
(0.00703559 0 0 2.88867e-14 -0.0140712 0 0 0 0.00703559)
(0.00734321 0 0 3.01702e-14 -0.0146864 0 0 0 0.00734321)
(0.00768498 0 0 3.14759e-14 -0.01537 0 0 0 0.00768498)
(0.00806772 0 0 3.27948e-14 -0.0161354 0 0 0 0.00806772)
(0.00849864 0 0 3.49679e-14 -0.0169973 0 0 0 0.00849864)
(0.00898479 0 0 3.71311e-14 -0.0179696 0 0 0 0.00898479)
(0.00953229 0 0 3.84184e-14 -0.0190646 0 0 0 0.00953229)
(0.0101456 0 0 3.97028e-14 -0.0202913 0 0 0 0.0101456)
(0.0108272 -7.36271e-17 0 3.92221e-14 -0.0216544 0 0 0 0.0108272)
(0.0115772 0 0 3.85927e-14 -0.0231544 0 0 0 0.0115772)
(0.0123951 0 0 3.95607e-14 -0.0247901 0 0 0 0.0123951)
(0.0132832 0 0 4.03973e-14 -0.0265664 0 0 0 0.0132832)
(0.0142534 0 0 4.09994e-14 -0.0285067 0 0 0 0.0142534)
(0.0153353 0 0 4.12961e-14 -0.0306706 0 0 0 0.0153353)
(0.0166068 0 0 3.94897e-14 -0.0332136 0 0 0 0.0166068)
(0.0182876 0 0 3.91657e-14 -0.0365752 0 0 0 0.0182876)
(0.0207877 0 0 4.05566e-14 -0.0415754 0 0 0 0.0207877)
(0.0243876 0 0 4.07216e-14 -0.0487752 0 0 0 0.0243876)
(0.0294474 0 0 4.23922e-14 -0.0588948 0 0 0 0.0294474)
(0.0384507 0 0 5.1403e-14 -0.0769015 0 0 0 0.0384507)
(0.0364712 0 0 5.1562e-14 -0.0729425 0 0 0 0.0364712)
(0.0261734 0 0 4.61529e-14 -0.0523468 0 0 0 0.0261734)
(0.0180504 0 0 3.94065e-14 -0.0361007 0 0 0 0.0180504)
(0.00892232 0 0 1.58765e-14 -0.0178446 0 0 0 0.00892232)
(9.6604e-07 0 0 2.33102e-17 -1.93208e-06 0 0 0 9.6604e-07)
(4.61968e-07 0 0 2.44106e-17 -9.23936e-07 0 0 0 4.61968e-07)
(-1.01362e-07 0 0 3.80216e-18 2.02724e-07 0 0 0 -1.01362e-07)
(3.94253e-07 0 0 4.00338e-18 -7.88505e-07 0 0 0 3.94253e-07)
(1.41527e-07 0 0 6.77334e-18 -2.83055e-07 0 0 0 1.41527e-07)
(6.2693e-08 0 0 9.97559e-18 -1.25386e-07 0 0 0 6.2693e-08)
(3.17862e-08 0 0 1.33783e-17 -6.35723e-08 0 0 0 3.17862e-08)
(1.53172e-08 0 0 1.69416e-17 -3.06344e-08 0 0 0 1.53172e-08)
(7.30981e-09 0 0 2.06384e-17 -1.46196e-08 0 0 0 7.30981e-09)
(3.48002e-09 0 0 2.44349e-17 -6.96003e-09 0 0 0 3.48002e-09)
(2.66182e-09 0 0 2.84385e-17 -5.32363e-09 0 0 0 2.66182e-09)
(2.87066e-09 0 0 -5.68262e-19 -5.74132e-09 0 0 0 2.87066e-09)
(-2.15551e-08 0 0 -2.96221e-17 4.31103e-08 0 0 0 -2.15551e-08)
(-1.04772e-09 0 0 -2.57568e-17 2.09545e-09 0 0 0 -1.04772e-09)
(2.87175e-07 0 0 -2.21768e-17 -5.74349e-07 0 0 0 2.87175e-07)
(-1.79881e-07 0 0 -1.87515e-17 3.59762e-07 0 0 0 -1.79881e-07)
(-2.8382e-06 0 0 -1.53411e-17 5.6764e-06 0 0 0 -2.8382e-06)
(-1.00058e-06 0 0 -1.19677e-17 2.00117e-06 0 0 0 -1.00058e-06)
(6.17977e-05 0 0 -7.76602e-18 -0.000123595 0 0 0 6.17977e-05)
(1.55589e-05 0 0 -3.37263e-18 -3.11178e-05 0 0 0 1.55589e-05)
(-5.3151e-07 0 0 -1.89705e-20 1.06302e-06 0 0 0 -5.3151e-07)
(8.50433e-10 0 0 -5.55212e-23 -1.70087e-09 0 0 0 8.50433e-10)
(8.62026e-17 0 0 -8.94777e-30 -1.72405e-16 0 0 0 8.62026e-17)
(-2.89875e-20 0 0 -6.58381e-33 5.7975e-20 0 0 0 -2.89875e-20)
(-5.97816e-27 0 0 -1.39468e-38 1.19563e-26 0 0 0 -5.97816e-27)
(-3.93488e-34 0 0 -1.42531e-44 7.86977e-34 0 0 0 -3.93488e-34)
(3.32745e-40 0 0 -9.37341e-51 -6.6549e-40 0 0 0 3.32745e-40)
(1.62276e-47 0 0 -4.20263e-57 -3.24552e-47 0 0 0 1.62276e-47)
(-3.96563e-54 0 0 -1.39612e-63 7.93127e-54 0 0 0 -3.96563e-54)
(-1.4948e-61 0 0 -3.37592e-70 2.98961e-61 0 0 0 -1.4948e-61)
(1.39752e-68 0 0 -6.37284e-77 -2.79503e-68 0 0 0 1.39752e-68)
(4.43975e-76 0 0 -9.37524e-84 -8.87951e-76 0 0 0 4.43975e-76)
(-1.85958e-83 0 0 -1.16248e-90 3.71916e-83 0 0 0 -1.85958e-83)
(-5.27246e-91 0 0 -1.18404e-97 1.05449e-90 0 0 0 -5.27246e-91)
(1.47365e-98 0 0 -1.03919e-104 -2.9473e-98 0 0 0 1.47365e-98)
(5.68254e-106 0 0 -7.55544e-112 -1.13651e-105 0 0 0 5.68254e-106)
(1.15512e-113 0 0 -4.71571e-119 -2.31025e-113 0 0 0 1.15512e-113)
(5.95716e-121 0 0 -2.41646e-126 -1.19143e-120 0 0 0 5.95716e-121)
(2.38098e-128 0 0 -1.07828e-133 -4.76197e-128 0 0 0 2.38098e-128)
(-3.97665e-136 0 0 -4.21597e-141 7.95331e-136 0 0 0 -3.97665e-136)
(-5.00455e-143 0 0 -1.61367e-148 1.00091e-142 0 0 0 -5.00455e-143)
(-5.07085e-149 0 0 -6.26593e-156 1.01417e-148 0 0 0 -5.07085e-149)
(-1.18461e-153 0 0 -2.71228e-163 2.36921e-153 0 0 0 -1.18461e-153)
(-1.2809e-160 0 0 -1.23984e-170 2.56179e-160 0 0 0 -1.2809e-160)
(-4.37431e-167 0 0 -5.80782e-178 8.74863e-167 0 0 0 -4.37431e-167)
(-1.83284e-171 0 0 -2.51158e-185 3.66567e-171 0 0 0 -1.83284e-171)
)
;

boundaryField
{
    inlet
    {
        type            cyclic;
    }
    outlet
    {
        type            cyclic;
    }
    top
    {
        type            extrapolatedCalculated;
        value           uniform (-3.66218e-171 0 0 -2.50891e-185 7.32435e-171 0 0 0 -3.66218e-171);
    }
    bottom
    {
        type            extrapolatedCalculated;
        value           uniform (0.0021306 0 0 7.82973e-15 -0.00426119 0 0 0 0.0021306);
    }
    frontAndBackPlanes
    {
        type            empty;
    }
}


// ************************************************************************* //
