/*--------------------------------*- C++ -*----------------------------------*\
| =========                 |                                                 |
| \\      /  F ield         | OpenFOAM: The Open Source CFD Toolbox           |
|  \\    /   O peration     | Version:  v2006                                 |
|   \\  /    A nd           | Website:  www.openfoam.com                      |
|    \\/     M anipulation  |                                                 |
\*---------------------------------------------------------------------------*/
FoamFile
{
    version     2.0;
    format      ascii;
    class       volTensorField;
    location    "1100";
    object      Taub;
}
// * * * * * * * * * * * * * * * * * * * * * * * * * * * * * * * * * * * * * //

dimensions      [1 -1 -2 0 0 0 0];


internalField   nonuniform List<tensor> 
120
(
(-1.52583e-07 0 0 3.72515e-19 3.05166e-07 0 0 0 -1.52583e-07)
(-1.54077e-07 0 0 3.73625e-19 3.08155e-07 0 0 0 -1.54077e-07)
(-1.56279e-07 0 0 3.68763e-19 3.12558e-07 0 0 0 -1.56279e-07)
(-1.58671e-07 0 0 3.64349e-19 3.17342e-07 0 0 0 -1.58671e-07)
(-1.61114e-07 0 0 3.66791e-19 3.22227e-07 0 0 0 -1.61114e-07)
(-1.63617e-07 0 0 3.72661e-19 3.27234e-07 0 0 0 -1.63617e-07)
(-1.66189e-07 0 0 3.61617e-19 3.32377e-07 0 0 0 -1.66189e-07)
(-1.68835e-07 0 0 3.46262e-19 3.3767e-07 0 0 0 -1.68835e-07)
(-1.7156e-07 0 0 3.68614e-19 3.43121e-07 0 0 0 -1.7156e-07)
(-1.74368e-07 0 0 3.87872e-19 3.48737e-07 0 0 0 -1.74368e-07)
(-1.77264e-07 0 0 3.812e-19 3.54527e-07 0 0 0 -1.77264e-07)
(-1.80251e-07 0 0 4.03538e-19 3.60503e-07 0 0 0 -1.80251e-07)
(-1.83336e-07 0 0 4.26537e-19 3.66672e-07 0 0 0 -1.83336e-07)
(-1.86523e-07 0 0 4.26634e-19 3.73046e-07 0 0 0 -1.86523e-07)
(-1.89817e-07 0 0 4.34137e-19 3.79634e-07 0 0 0 -1.89817e-07)
(-1.93224e-07 0 0 4.42411e-19 3.86447e-07 0 0 0 -1.93224e-07)
(-1.96748e-07 0 0 4.51459e-19 3.93495e-07 0 0 0 -1.96748e-07)
(-2.00394e-07 0 0 4.61316e-19 4.00789e-07 0 0 0 -2.00394e-07)
(-2.04169e-07 0 0 4.72016e-19 4.08337e-07 0 0 0 -2.04169e-07)
(-2.08076e-07 0 0 4.8359e-19 4.16152e-07 0 0 0 -2.08076e-07)
(-2.12121e-07 0 0 4.96071e-19 4.24243e-07 0 0 0 -2.12121e-07)
(-2.16311e-07 0 0 5.09222e-19 4.32621e-07 0 0 0 -2.16311e-07)
(-2.2065e-07 0 0 4.62095e-19 4.413e-07 0 0 0 -2.2065e-07)
(-2.25145e-07 0 0 5.79567e-19 4.50291e-07 0 0 0 -2.25145e-07)
(-2.29805e-07 0 0 6.98208e-19 4.5961e-07 0 0 0 -2.29805e-07)
(-2.34637e-07 0 0 6.89931e-19 4.69273e-07 0 0 0 -2.34637e-07)
(-2.39651e-07 0 0 6.52162e-19 4.79302e-07 0 0 0 -2.39651e-07)
(-2.4486e-07 0 0 6.16154e-19 4.89721e-07 0 0 0 -2.4486e-07)
(-2.50279e-07 0 0 7.55298e-19 5.00558e-07 0 0 0 -2.50279e-07)
(-2.55923e-07 0 0 7.40553e-19 5.11847e-07 0 0 0 -2.55923e-07)
(-2.61814e-07 0 0 5.14438e-19 5.23628e-07 0 0 0 -2.61814e-07)
(-2.67972e-07 0 0 4.9457e-19 5.35945e-07 0 0 0 -2.67972e-07)
(-2.74425e-07 0 0 6.06607e-19 5.48849e-07 0 0 0 -2.74425e-07)
(-2.81197e-07 0 0 6.3362e-19 5.62395e-07 0 0 0 -2.81197e-07)
(-2.88321e-07 0 0 5.55163e-19 5.76642e-07 0 0 0 -2.88321e-07)
(-2.95826e-07 -3.49128e-21 0 6.21483e-19 5.91652e-07 0 0 0 -2.95826e-07)
(-3.03744e-07 0 0 1.06518e-18 6.07488e-07 0 0 0 -3.03744e-07)
(-3.12105e-07 0 0 8.70448e-19 6.24211e-07 0 0 0 -3.12105e-07)
(-3.2094e-07 0 0 1.04641e-18 6.41881e-07 0 0 0 -3.2094e-07)
(-3.30276e-07 0 0 8.99592e-19 6.60552e-07 0 0 0 -3.30276e-07)
(-3.40137e-07 0 0 7.93328e-19 6.80273e-07 0 0 0 -3.40137e-07)
(-3.50545e-07 0 0 1.07587e-18 7.01091e-07 0 0 0 -3.50545e-07)
(-3.61526e-07 0 0 8.1564e-19 7.23052e-07 0 0 0 -3.61526e-07)
(-3.73105e-07 0 0 8.45112e-19 7.46209e-07 0 0 0 -3.73105e-07)
(-3.85317e-07 0 0 1.39337e-18 7.70634e-07 0 0 0 -3.85317e-07)
(-3.98214e-07 0 0 1.24123e-18 7.96428e-07 0 0 0 -3.98214e-07)
(-4.1187e-07 0 0 9.16275e-19 8.23741e-07 0 0 0 -4.1187e-07)
(-4.26395e-07 0 0 7.24456e-19 8.52789e-07 0 0 0 -4.26395e-07)
(-4.4194e-07 0 0 1.00206e-18 8.8388e-07 0 0 0 -4.4194e-07)
(-4.58714e-07 0 0 1.65515e-18 9.17428e-07 0 0 0 -4.58714e-07)
(-4.76986e-07 0 0 1.3683e-18 9.53971e-07 0 0 0 -4.76986e-07)
(-4.97089e-07 0 0 1.42718e-18 9.94178e-07 0 0 0 -4.97089e-07)
(-5.19416e-07 0 0 1.48765e-18 1.03883e-06 0 0 0 -5.19416e-07)
(-5.44399e-07 0 0 1.33292e-18 1.0888e-06 0 0 0 -5.44399e-07)
(-5.72485e-07 0 0 1.65308e-18 1.14497e-06 0 0 0 -5.72485e-07)
(-6.04096e-07 0 0 1.97263e-18 1.20819e-06 0 0 0 -6.04096e-07)
(-6.39577e-07 0 0 1.8187e-18 1.27915e-06 0 0 0 -6.39577e-07)
(-6.79153e-07 0 0 2.38582e-18 1.35831e-06 0 0 0 -6.79153e-07)
(-7.22902e-07 6.95434e-21 0 1.85231e-18 1.4458e-06 0 0 0 -7.22902e-07)
(-7.70771e-07 0 0 1.3121e-18 1.54154e-06 0 0 0 -7.70771e-07)
(-8.22682e-07 0 0 1.86487e-18 1.64536e-06 0 0 0 -8.22682e-07)
(-8.7878e-07 0 0 1.90607e-18 1.75756e-06 0 0 0 -8.7878e-07)
(-9.39985e-07 0 0 1.93688e-18 1.87997e-06 0 0 0 -9.39985e-07)
(-1.00914e-06 0 0 2.60981e-18 2.01827e-06 0 0 0 -1.00914e-06)
(-1.09264e-06 0 0 1.16162e-18 2.18528e-06 0 0 0 -1.09264e-06)
(-1.2027e-06 0 0 1.1794e-18 2.40539e-06 0 0 0 -1.2027e-06)
(-1.36317e-06 0 0 2.60498e-18 2.72633e-06 0 0 0 -1.36317e-06)
(-1.57894e-06 0 0 1.91926e-18 3.15789e-06 0 0 0 -1.57894e-06)
(-1.95032e-06 0 0 1.9989e-18 3.90064e-06 0 0 0 -1.95032e-06)
(-2.67688e-06 0 0 3.39842e-18 5.35376e-06 0 0 0 -2.67688e-06)
(-3.65488e-06 0 0 3.6812e-18 7.30977e-06 0 0 0 -3.65488e-06)
(-4.01577e-06 0 0 4.86451e-18 8.03153e-06 0 0 0 -4.01577e-06)
(-1.16443e-06 0 0 7.7344e-18 2.32887e-06 0 0 0 -1.16443e-06)
(-3.83863e-05 0 0 2.13083e-17 7.67726e-05 0 0 0 -3.83863e-05)
(-5.34549e-05 0 0 1.90716e-15 0.00010691 0 0 0 -5.34549e-05)
(-6.69003e-05 0 0 2.03594e-15 0.000133801 0 0 0 -6.69003e-05)
(-3.57167e-05 0 0 3.22719e-16 7.14333e-05 0 0 0 -3.57167e-05)
(1.96325e-05 0 0 3.41511e-16 -3.9265e-05 0 0 0 1.96325e-05)
(5.53021e-06 0 0 5.79202e-16 -1.10604e-05 0 0 0 5.53021e-06)
(2.2289e-06 0 0 8.54025e-16 -4.4578e-06 0 0 0 2.2289e-06)
(1.21724e-06 0 0 1.14598e-15 -2.43447e-06 0 0 0 1.21724e-06)
(5.84603e-07 0 0 1.45159e-15 -1.16921e-06 0 0 0 5.84603e-07)
(2.76238e-07 0 0 1.76858e-15 -5.52475e-07 0 0 0 2.76238e-07)
(1.31008e-07 0 0 2.09404e-15 -2.62016e-07 0 0 0 1.31008e-07)
(1.46913e-07 0 0 2.4241e-15 -2.93826e-07 0 0 0 1.46913e-07)
(2.15967e-07 0 0 -4.87008e-17 -4.31934e-07 0 0 0 2.15967e-07)
(-1.89167e-06 0 0 -2.52557e-15 3.78334e-06 0 0 0 -1.89167e-06)
(-7.10274e-08 0 0 -2.20749e-15 1.42055e-07 0 0 0 -7.10274e-08)
(2.48509e-05 0 0 -1.90063e-15 -4.97017e-05 0 0 0 2.48509e-05)
(-1.65535e-05 0 0 -1.60655e-15 3.3107e-05 0 0 0 -1.65535e-05)
(-0.000237444 0 0 -1.31648e-15 0.000474889 0 0 0 -0.000237444)
(-0.000107803 0 0 -1.02212e-15 0.000215606 0 0 0 -0.000107803)
(0.00529995 0 0 -6.82424e-16 -0.0105999 0 0 0 0.00529995)
(1.00361e-07 0 0 -2.99736e-16 -2.00722e-07 0 0 0 1.00361e-07)
(-0.00268839 0 0 -5.85126e-17 0.00537679 0 0 0 -0.00268839)
(9.11445e-05 0 0 -7.87177e-17 -0.000182289 0 0 0 9.11445e-05)
(0.000384734 0 0 -7.57214e-17 -0.000769469 0 0 0 0.000384734)
(8.49936e-06 0 0 -7.26508e-17 -1.69987e-05 0 0 0 8.49936e-06)
(-2.97587e-05 0 0 -6.98561e-17 5.95173e-05 0 0 0 -2.97587e-05)
(-1.86718e-06 0 0 -6.72845e-17 3.73436e-06 0 0 0 -1.86718e-06)
(2.25273e-06 0 0 -6.48957e-17 -4.50545e-06 0 0 0 2.25273e-06)
(2.3713e-07 0 0 -6.26601e-17 -4.74259e-07 0 0 0 2.3713e-07)
(-1.66623e-07 0 0 -6.05564e-17 3.33247e-07 0 0 0 -1.66623e-07)
(-2.53378e-08 0 0 -5.857e-17 5.06757e-08 0 0 0 -2.53378e-08)
(1.20341e-08 0 0 -5.66914e-17 -2.40682e-08 0 0 0 1.20341e-08)
(2.53652e-09 0 0 -5.49155e-17 -5.07304e-09 0 0 0 2.53652e-09)
(-8.2248e-10 0 0 -5.324e-17 1.64496e-09 0 0 0 -8.2248e-10)
(-2.23631e-10 0 0 -5.16652e-17 4.47261e-10 0 0 0 -2.23631e-10)
(6.91774e-11 0 0 -5.01929e-17 -1.38355e-10 0 0 0 6.91774e-11)
(3.61349e-11 0 0 -4.88261e-17 -7.22697e-11 0 0 0 3.61349e-11)
(1.17739e-11 0 0 -4.75683e-17 -2.35478e-11 0 0 0 1.17739e-11)
(1.14937e-11 0 0 -4.64233e-17 -2.29873e-11 0 0 0 1.14937e-11)
(1.00766e-11 0 0 -4.53948e-17 -2.01532e-11 0 0 0 1.00766e-11)
(7.16253e-12 0 0 -4.44865e-17 -1.43251e-11 0 0 0 7.16253e-12)
(5.79959e-12 0 0 -4.37017e-17 -1.15992e-11 0 0 0 5.79959e-12)
(6.05002e-12 0 0 -4.30432e-17 -1.21e-11 0 0 0 6.05002e-12)
(5.96704e-12 0 0 -4.25135e-17 -1.19341e-11 0 0 0 5.96704e-12)
(2.25952e-13 0 0 -4.21145e-17 -4.51905e-13 0 0 0 2.25952e-13)
(-2.19938e-12 0 0 -4.18476e-17 4.39877e-12 0 0 0 -2.19938e-12)
(8.39399e-11 0 0 -4.17043e-17 -1.6788e-10 0 0 0 8.39399e-11)
)
;

boundaryField
{
    inlet
    {
        type            cyclic;
    }
    outlet
    {
        type            cyclic;
    }
    top
    {
        type            extrapolatedCalculated;
        value           uniform (1.67192e-10 0 0 -4.16611e-17 -3.34384e-10 0 0 0 1.67192e-10);
    }
    bottom
    {
        type            extrapolatedCalculated;
        value           uniform (-1.521e-07 0 0 3.72371e-19 3.042e-07 0 0 0 -1.521e-07);
    }
    frontAndBackPlanes
    {
        type            empty;
    }
}


// ************************************************************************* //
