/*--------------------------------*- C++ -*----------------------------------*\
| =========                 |                                                 |
| \\      /  F ield         | OpenFOAM: The Open Source CFD Toolbox           |
|  \\    /   O peration     | Version:  v2006                                 |
|   \\  /    A nd           | Website:  www.openfoam.com                      |
|    \\/     M anipulation  |                                                 |
\*---------------------------------------------------------------------------*/
FoamFile
{
    version     2.0;
    format      ascii;
    class       volVectorField;
    location    "1100";
    object      Ua;
}
// * * * * * * * * * * * * * * * * * * * * * * * * * * * * * * * * * * * * * //

dimensions      [0 1 -1 0 0 0 0];


internalField   nonuniform List<vector> 
120
(
(1.86422e-21 -1.52185e-09 0)
(5.59548e-21 -4.59208e-09 0)
(9.33332e-21 -7.71518e-09 0)
(1.2981e-20 -1.08888e-08 0)
(1.66443e-20 -1.41125e-08 0)
(2.03278e-20 -1.73877e-08 0)
(2.40363e-20 -2.07161e-08 0)
(2.75725e-20 -2.40994e-08 0)
(3.1144e-20 -2.7539e-08 0)
(3.49584e-20 -3.10368e-08 0)
(3.88191e-20 -3.45945e-08 0)
(4.27322e-20 -3.82141e-08 0)
(4.69061e-20 -4.18976e-08 0)
(5.11453e-20 -4.56472e-08 0)
(5.54566e-20 -4.94652e-08 0)
(5.98474e-20 -5.33538e-08 0)
(6.43253e-20 -5.73156e-08 0)
(6.88982e-20 -6.13532e-08 0)
(7.35745e-20 -6.54692e-08 0)
(7.83627e-20 -6.96666e-08 0)
(8.32718e-20 -7.39481e-08 0)
(8.83112e-20 -7.8317e-08 0)
(9.34903e-20 -8.27764e-08 0)
(9.88193e-20 -8.73295e-08 0)
(1.05116e-19 -9.198e-08 0)
(1.11584e-19 -9.67314e-08 0)
(1.18233e-19 -1.01588e-07 0)
(1.2467e-19 -1.06553e-07 0)
(1.3131e-19 -1.11631e-07 0)
(1.38167e-19 -1.16828e-07 0)
(1.44442e-19 -1.22148e-07 0)
(1.5015e-19 -1.27597e-07 0)
(1.5611e-19 -1.3318e-07 0)
(1.62337e-19 -1.38905e-07 0)
(1.68843e-19 -1.44779e-07 0)
(1.75632e-19 -1.5081e-07 0)
(1.83539e-19 -1.57007e-07 0)
(1.9259e-19 -1.63378e-07 0)
(2.01175e-19 -1.69935e-07 0)
(2.10928e-19 -1.76687e-07 0)
(2.19443e-19 -1.83647e-07 0)
(2.29163e-19 -1.90825e-07 0)
(2.38492e-19 -1.98236e-07 0)
(2.4826e-19 -2.0589e-07 0)
(2.58489e-19 -2.13804e-07 0)
(2.70008e-19 -2.2199e-07 0)
(2.80416e-19 -2.30465e-07 0)
(2.91351e-19 -2.39246e-07 0)
(3.02028e-19 -2.48356e-07 0)
(3.14892e-19 -2.57816e-07 0)
(3.28345e-19 -2.67659e-07 0)
(3.42403e-19 -2.77918e-07 0)
(3.57079e-19 -2.88639e-07 0)
(3.7238e-19 -2.99875e-07 0)
(3.88312e-19 -3.1169e-07 0)
(4.05683e-19 -3.24157e-07 0)
(4.23675e-19 -3.37361e-07 0)
(4.42272e-19 -3.51392e-07 0)
(4.61487e-19 -3.66348e-07 0)
(4.79626e-19 -3.82327e-07 0)
(4.98242e-19 -3.99426e-07 0)
(5.17303e-19 -4.17741e-07 0)
(5.36715e-19 -4.37378e-07 0)
(5.5635e-19 -4.58465e-07 0)
(5.76045e-19 -4.81193e-07 0)
(5.93959e-19 -5.05913e-07 0)
(6.13346e-19 -5.33443e-07 0)
(6.32585e-19 -5.65307e-07 0)
(6.52128e-19 -6.03122e-07 0)
(6.72958e-19 -6.49442e-07 0)
(7.01083e-19 -7.12981e-07 0)
(7.47531e-19 -8.07683e-07 0)
(8.19578e-19 -9.14578e-07 0)
(9.0315e-19 -1.02153e-06 0)
(1.01331e-18 -1.2412e-06 0)
(4.07796e-17 -5.97931e-06 0)
(4.52597e-17 -3.75327e-06 0)
(4.78622e-17 -5.41286e-06 0)
(5.28051e-17 -5.98249e-06 0)
(6.06988e-17 -6.21752e-06 0)
(7.17603e-17 -6.33987e-06 0)
(8.61517e-17 -6.39894e-06 0)
(1.04012e-16 -6.42735e-06 0)
(1.25453e-16 -6.4407e-06 0)
(1.50549e-16 -6.44723e-06 0)
(1.79618e-16 -6.45591e-06 0)
(1.49466e-16 -6.46363e-06 0)
(1.23196e-16 -6.33274e-06 0)
(1.00404e-16 -6.45765e-06 0)
(8.09552e-17 -7.97372e-06 0)
(6.47127e-17 -5.43051e-06 0)
(5.16496e-17 8.29138e-06 0)
(4.20944e-17 2.42634e-07 0)
(3.60144e-17 -0.000364959 0)
(3.51369e-17 -9.60488e-05 0)
(3.31377e-17 -0.000123163 0)
(3.1203e-17 -0.000276817 0)
(2.93471e-17 -0.000232717 0)
(2.75671e-17 -0.000228792 0)
(2.58539e-17 -0.000228225 0)
(2.42025e-17 -0.000228513 0)
(2.26088e-17 -0.00022857 0)
(2.10691e-17 -0.00022855 0)
(1.95806e-17 -0.000228544 0)
(1.81402e-17 -0.000228546 0)
(1.67457e-17 -0.000228546 0)
(1.53941e-17 -0.000228546 0)
(1.40834e-17 -0.000228546 0)
(1.28105e-17 -0.000228546 0)
(1.15734e-17 -0.000228546 0)
(1.0369e-17 -0.000228546 0)
(9.19465e-18 -0.000228546 0)
(8.04747e-18 -0.000228546 0)
(6.9247e-18 -0.000228546 0)
(5.82293e-18 -0.000228546 0)
(4.73929e-18 -0.000228546 0)
(3.67051e-18 -0.000228546 0)
(2.61335e-18 -0.000228518 0)
(1.56453e-18 -0.000228481 0)
(5.2077e-19 -0.000228045 0)
)
;

boundaryField
{
    inlet
    {
        type            cyclic;
    }
    outlet
    {
        type            cyclic;
    }
    top
    {
        type            fixedValue;
        value           uniform (0 0 0);
    }
    bottom
    {
        type            fixedValue;
        value           uniform (0 0 0);
    }
    frontAndBackPlanes
    {
        type            empty;
    }
}


// ************************************************************************* //
