/*--------------------------------*- C++ -*----------------------------------*\
| =========                 |                                                 |
| \\      /  F ield         | OpenFOAM: The Open Source CFD Toolbox           |
|  \\    /   O peration     | Version:  v2006                                 |
|   \\  /    A nd           | Website:  www.openfoam.com                      |
|    \\/     M anipulation  |                                                 |
\*---------------------------------------------------------------------------*/
FoamFile
{
    version     2.0;
    format      ascii;
    class       volVectorField;
    location    "1100";
    object      Ub;
}
// * * * * * * * * * * * * * * * * * * * * * * * * * * * * * * * * * * * * * //

dimensions      [0 1 -1 0 0 0 0];


internalField   nonuniform List<vector> 
120
(
(1.86422e-21 2.2844e-09 0)
(5.59554e-21 6.88219e-09 0)
(9.34667e-21 1.15414e-08 0)
(1.29811e-20 1.6272e-08 0)
(1.66443e-20 2.10755e-08 0)
(2.03281e-20 2.59536e-08 0)
(2.41094e-20 3.09082e-08 0)
(2.75724e-20 3.59414e-08 0)
(3.10466e-20 4.10558e-08 0)
(3.49579e-20 4.62536e-08 0)
(3.88185e-20 5.15374e-08 0)
(4.25967e-20 5.691e-08 0)
(4.69055e-20 6.23742e-08 0)
(5.11453e-20 6.79331e-08 0)
(5.54566e-20 7.35898e-08 0)
(5.98474e-20 7.93476e-08 0)
(6.43253e-20 8.521e-08 0)
(6.88982e-20 9.11807e-08 0)
(7.35745e-20 9.72635e-08 0)
(7.83627e-20 1.03462e-07 0)
(8.32718e-20 1.09781e-07 0)
(8.83111e-20 1.16224e-07 0)
(9.34849e-20 1.22796e-07 0)
(9.75798e-20 1.29502e-07 0)
(1.05111e-19 1.36345e-07 0)
(1.11587e-19 1.43332e-07 0)
(1.18953e-19 1.50468e-07 0)
(1.24673e-19 1.57758e-07 0)
(1.31318e-19 1.65209e-07 0)
(1.39831e-19 1.72827e-07 0)
(1.46182e-19 1.80619e-07 0)
(1.50158e-19 1.88594e-07 0)
(1.56111e-19 1.96758e-07 0)
(1.62337e-19 2.05123e-07 0)
(1.68834e-19 2.13698e-07 0)
(1.73486e-19 2.22494e-07 0)
(1.81316e-19 2.31522e-07 0)
(1.94882e-19 2.40797e-07 0)
(1.98803e-19 2.50332e-07 0)
(2.15907e-19 2.60142e-07 0)
(2.1688e-19 2.70243e-07 0)
(2.3185e-19 2.8065e-07 0)
(2.38504e-19 2.91381e-07 0)
(2.48247e-19 3.02453e-07 0)
(2.55496e-19 3.13885e-07 0)
(2.76266e-19 3.25698e-07 0)
(2.80459e-19 3.37912e-07 0)
(2.94697e-19 3.50552e-07 0)
(2.95034e-19 3.63647e-07 0)
(3.1486e-19 3.7723e-07 0)
(3.28345e-19 3.91342e-07 0)
(3.42403e-19 4.06034e-07 0)
(3.57079e-19 4.21366e-07 0)
(3.7236e-19 4.37413e-07 0)
(3.83925e-19 4.54261e-07 0)
(4.05663e-19 4.72012e-07 0)
(4.23675e-19 4.90779e-07 0)
(4.4232e-19 5.10685e-07 0)
(4.71774e-19 5.31856e-07 0)
(4.79673e-19 5.54419e-07 0)
(4.98242e-19 5.785e-07 0)
(5.17303e-19 6.0422e-07 0)
(5.36716e-19 6.31714e-07 0)
(5.56413e-19 6.61161e-07 0)
(5.89434e-19 6.92867e-07 0)
(5.79887e-19 7.27403e-07 0)
(6.13279e-19 7.65816e-07 0)
(6.32584e-19 8.1013e-07 0)
(6.52128e-19 8.61699e-07 0)
(6.73076e-19 9.28654e-07 0)
(7.21032e-19 1.02452e-06 0)
(7.47786e-19 1.15118e-06 0)
(8.1986e-19 1.26928e-06 0)
(9.05092e-19 1.22223e-06 0)
(1.25413e-18 3.61624e-06 0)
(4.07785e-17 4.57502e-06 0)
(4.52596e-17 7.95426e-06 0)
(4.78623e-17 6.92698e-06 0)
(5.28052e-17 6.65294e-06 0)
(6.0699e-17 6.55929e-06 0)
(7.17604e-17 6.50452e-06 0)
(8.61519e-17 6.47818e-06 0)
(1.04012e-16 6.46556e-06 0)
(1.25453e-16 6.45977e-06 0)
(1.50549e-16 6.45682e-06 0)
(1.79326e-16 6.44997e-06 0)
(1.49466e-16 6.44242e-06 0)
(1.23197e-16 6.5761e-06 0)
(1.00404e-16 6.44716e-06 0)
(8.09553e-17 4.91917e-06 0)
(6.47128e-17 7.55041e-06 0)
(5.16498e-17 2.07761e-05 0)
(4.20946e-17 1.4707e-05 0)
(3.60147e-17 -0.000343507 0)
(3.51366e-17 1.47e-05 0)
(3.31339e-17 5.35677e-05 0)
(3.12003e-17 1.02709e-06 0)
(2.93474e-17 -4.1497e-06 0)
(2.75673e-17 -2.47977e-07 0)
(2.58541e-17 3.14658e-07 0)
(2.42027e-17 3.21352e-08 0)
(2.26089e-17 -2.32933e-08 0)
(2.10693e-17 -3.43869e-09 0)
(1.95807e-17 1.70332e-09 0)
(1.81404e-17 3.6246e-10 0)
(1.67458e-17 -1.02026e-10 0)
(1.53943e-17 -1.80655e-11 0)
(1.40835e-17 2.13616e-11 0)
(1.28107e-17 1.54833e-11 0)
(1.15735e-17 1.09837e-11 0)
(1.03691e-17 1.00624e-11 0)
(9.19479e-18 9.21743e-12 0)
(8.04766e-18 8.3381e-12 0)
(6.92477e-18 7.70575e-12 0)
(5.82306e-18 7.26358e-12 0)
(4.73941e-18 6.8357e-12 0)
(3.67063e-18 6.35597e-12 0)
(2.61347e-18 5.94054e-12 0)
(1.56464e-18 6.32207e-12 0)
(5.20829e-19 6.27049e-12 0)
)
;

boundaryField
{
    inlet
    {
        type            cyclic;
    }
    outlet
    {
        type            cyclic;
    }
    top
    {
        type            fixedValue;
        value           uniform (0 0 0);
    }
    bottom
    {
        type            fixedValue;
        value           uniform (0 0 0);
    }
    frontAndBackPlanes
    {
        type            empty;
    }
}


// ************************************************************************* //
