/*--------------------------------*- C++ -*----------------------------------*\
| =========                 |                                                 |
| \\      /  F ield         | OpenFOAM: The Open Source CFD Toolbox           |
|  \\    /   O peration     | Version:  2206                                  |
|   \\  /    A nd           | Website:  www.openfoam.com                      |
|    \\/     M anipulation  |                                                 |
\*---------------------------------------------------------------------------*/
FoamFile
{
    version     2.0;
    format      ascii;
    arch        "LSB;label=32;scalar=64";
    class       volScalarField;
    location    "2.4";
    object      alpha.a;
}
// * * * * * * * * * * * * * * * * * * * * * * * * * * * * * * * * * * * * * //

dimensions      [0 0 0 0 0 0 0];

internalField   nonuniform List<scalar> 
13078
(
0.509606
0.5577467
0.5796886
0.5808316
0.5804431
0.5797409
0.5789036
0.563759
0.5791938
0.5813716
0.5810875
0.5804904
0.5797705
0.5789277
0.5816674
0.5821334
0.5818225
0.5812349
0.5805672
0.5798207
0.5789652
0.5833468
0.5826206
0.5819914
0.5813453
0.5806452
0.5798757
0.5790079
0.5835258
0.582756
0.5820886
0.581416
0.5807112
0.5799287
0.5790506
0.583484
0.5827796
0.582135
0.5814633
0.5807496
0.5799727
0.5790908
0.5834302
0.5827726
0.582154
0.581491
0.5807769
0.5799959
0.5791247
0.5833898
0.582756
0.5821596
0.5815045
0.5807925
0.5800125
0.5791402
0.5833605
0.5827394
0.5821556
0.5815083
0.5808005
0.580023
0.5791516
0.5833391
0.582725
0.5821491
0.581508
0.5808042
0.5800293
0.5791594
0.583323
0.5827131
0.5821423
0.5815058
0.5808053
0.580033
0.5791649
0.58331
0.5827034
0.5821358
0.5815026
0.5808049
0.5800351
0.5791688
0.5832995
0.5826952
0.5821299
0.5814992
0.5808038
0.580036
0.5791715
0.5832904
0.582688
0.5821245
0.5814959
0.5808024
0.5800364
0.5791737
0.5832824
0.5826816
0.5821197
0.5814966
0.5808064
0.5800372
0.5791755
0.5832751
0.5826758
0.5821154
0.5814981
0.5808085
0.5800376
0.5791772
0.583268
0.5826701
0.5821109
0.5814955
0.5808072
0.5800376
0.5791789
0.583261
0.5826645
0.5821065
0.5814927
0.5808058
0.5800377
0.5791806
0.5832538
0.5826588
0.582102
0.5814897
0.5808045
0.5800381
0.5791822
0.5832463
0.5826529
0.5820975
0.5814872
0.5808092
0.5800466
0.579185
0.5832383
0.5826466
0.5820927
0.5814844
0.5808144
0.5800523
0.5791878
0.5832295
0.5826398
0.5820874
0.5814809
0.5808138
0.5800531
0.57919
0.5832199
0.5826324
0.5820816
0.5814772
0.5808122
0.5800541
0.5791933
0.5832092
0.582624
0.5820751
0.5814731
0.5808113
0.5800634
0.5792079
0.5831972
0.5826146
0.5820678
0.5814684
0.5808099
0.5800736
0.5792186
0.5831835
0.5826039
0.5820597
0.5814632
0.5808076
0.5800762
0.5792235
0.5831678
0.5825917
0.5820503
0.5814571
0.5808049
0.5800773
0.5792289
0.5831501
0.5825779
0.5820397
0.5814501
0.5808019
0.580079
0.5792462
0.5831297
0.582562
0.5820276
0.581442
0.5807981
0.5800799
0.5792644
0.5831086
0.5825461
0.5820145
0.5814329
0.5807931
0.580079
0.5792712
0.5830839
0.5825273
0.5819995
0.5814225
0.580787
0.580077
0.5792747
0.5830561
0.58251
0.5819887
0.5814119
0.5807795
0.5800732
0.5792749
0.5830266
0.5824914
0.5819797
0.5814093
0.5807743
0.58007
0.5792734
0.5829972
0.5824736
0.5819736
0.5814059
0.5807755
0.5800766
0.5792812
0.5829719
0.5824663
0.5819822
0.5814381
0.5808226
0.5801203
0.5793197
0.5829613
0.5824853
0.5820347
0.581531
0.5809447
0.5802459
0.5794171
0.5829791
0.5825656
0.5821774
0.5817188
0.5811595
0.5804182
0.5795237
0.5830537
0.5827503
0.5824273
0.5819829
0.5814102
0.5806155
0.5795863
0.5832232
0.5830317
0.5827383
0.5822762
0.5816484
0.580813
0.5795802
0.5835122
0.5833687
0.5830572
0.5825632
0.5818739
0.580967
0.5796411
0.5838931
0.5837065
0.5833945
0.5828277
0.5821049
0.581151
0.5798452
0.5843436
0.584007
0.583699
0.583133
0.5823456
0.5813719
0.5801531
0.5848073
0.584278
0.5839464
0.5834093
0.5826687
0.5816099
0.5806269
0.5852406
0.5844402
0.584167
0.5835984
0.5828457
0.5819439
0.5810673
0.5855197
0.5845237
0.584263
0.5836374
0.5828799
0.5822755
0.5816603
0.5856143
0.5845458
0.5842491
0.5835276
0.5829067
0.5824414
0.5820243
0.5856095
0.5845245
0.5840803
0.5834075
0.5829202
0.5825172
0.5820021
0.5856225
0.5844944
0.5839854
0.5833516
0.5830044
0.5825607
0.5818922
0.5856147
0.5844604
0.5839845
0.5833588
0.5830143
0.582531
0.5817392
0.5855721
0.5844581
0.5840078
0.5833976
0.583039
0.5823837
0.5814341
0.5854788
0.5845171
0.5840933
0.5833922
0.5829451
0.5820796
0.5809007
0.5852846
0.584488
0.5841448
0.5834647
0.5828648
0.5817395
0.580303
0.5850166
0.5843456
0.5839158
0.5832691
0.5825307
0.5812527
0.5796269
0.5847393
0.5841516
0.5836918
0.5829486
0.5820459
0.5805861
0.5790753
0.5844679
0.5839374
0.5834281
0.5826022
0.5815817
0.5800821
0.5785756
0.5841847
0.5836887
0.583138
0.5822795
0.5812326
0.5797592
0.5782055
0.5839566
0.5833754
0.5827948
0.581962
0.5809886
0.5795762
0.5780511
0.5838664
0.5831581
0.5825819
0.5818108
0.5809447
0.5795886
0.5781206
0.5838002
0.5829685
0.582403
0.5816891
0.5809257
0.5796406
0.5782331
0.5837609
0.5827794
0.582203
0.5815358
0.5808575
0.579708
0.5782581
0.583791
0.5826596
0.582073
0.5812951
0.5806849
0.5795874
0.5781363
0.5838687
0.5826082
0.5819906
0.5811546
0.580588
0.5795561
0.5781291
0.583935
0.5826099
0.5818869
0.5810041
0.5804497
0.5795641
0.5780962
0.5839843
0.5827067
0.581953
0.5809734
0.5803595
0.579584
0.5781758
0.584053
0.5829236
0.5821604
0.5810885
0.5803031
0.5796171
0.5783641
0.5841775
0.5831543
0.5824657
0.5813174
0.5802075
0.5793943
0.5784607
0.5843086
0.5833358
0.582739
0.5815892
0.5802542
0.5792219
0.5784545
0.5843037
0.5834178
0.5828305
0.581844
0.5804742
0.5791049
0.5781595
0.5841136
0.5834246
0.582839
0.5819823
0.5807529
0.5791872
0.5777881
0.5838239
0.5833453
0.5827902
0.5819717
0.5809095
0.5794492
0.5777558
0.5835252
0.5831904
0.5827009
0.5819448
0.580967
0.5797134
0.5780565
0.5832597
0.5830087
0.5825819
0.5819146
0.5810392
0.5799175
0.5785251
0.5830652
0.5828012
0.5824171
0.5818555
0.581101
0.5801468
0.5788079
0.5829525
0.582611
0.5822365
0.5817288
0.5810831
0.5802626
0.5791115
0.5829134
0.5824828
0.582071
0.5815795
0.5809887
0.5802318
0.5792819
0.5829149
0.5824296
0.5819681
0.5814544
0.5808578
0.5801397
0.5792955
0.5829367
0.5824238
0.5819334
0.5813915
0.5807709
0.5800639
0.5792554
0.5829703
0.5824403
0.5819371
0.5813739
0.5807423
0.5800314
0.5792334
0.5830049
0.5824654
0.5819533
0.5813763
0.5807382
0.5800332
0.5792366
0.5830381
0.5824911
0.5819701
0.5813919
0.5807521
0.5800445
0.5792466
0.5830693
0.5825132
0.5819842
0.5814016
0.5807649
0.5800555
0.5792546
0.5830968
0.5825326
0.5819983
0.5814162
0.5807766
0.5800634
0.5792582
0.5831203
0.5825519
0.5820153
0.5814293
0.5807859
0.5800687
0.5792582
0.5831401
0.5825679
0.5820293
0.5814402
0.5807932
0.5800724
0.579255
0.583159
0.5825835
0.582042
0.5814496
0.5807988
0.5800737
0.5792389
0.5831755
0.5825968
0.5820529
0.5814573
0.5808031
0.5800738
0.5792241
0.58319
0.5826085
0.5820623
0.5814638
0.5808067
0.5800739
0.5792201
0.5832026
0.5826185
0.5820702
0.5814693
0.5808095
0.5800723
0.5792165
0.5832138
0.5826273
0.5820772
0.5814742
0.5808113
0.5800623
0.5792062
0.5832237
0.5826351
0.5820834
0.5814782
0.5808125
0.5800538
0.5791923
0.5832325
0.5826421
0.582089
0.5814818
0.5808142
0.580053
0.5791895
0.5832405
0.5826484
0.582094
0.5814852
0.5808149
0.5800524
0.5791876
0.5832479
0.5826542
0.5820984
0.5814877
0.5808092
0.5800464
0.5791849
0.5832548
0.5826596
0.5821025
0.5814899
0.5808046
0.5800381
0.5791821
0.5832612
0.5826647
0.5821065
0.5814926
0.5808058
0.5800376
0.5791806
0.5832675
0.5826696
0.5821104
0.5814952
0.5808071
0.5800377
0.5791792
0.5832738
0.5826746
0.5821145
0.5814975
0.5808083
0.5800377
0.5791776
0.5832802
0.5826797
0.5821182
0.5814955
0.5808058
0.5800373
0.5791761
0.5832869
0.582685
0.5821222
0.5814945
0.5808019
0.5800366
0.5791745
0.5832943
0.582691
0.5821268
0.5814975
0.5808033
0.5800366
0.5791729
0.5833028
0.5826979
0.582132
0.5815008
0.5808048
0.5800363
0.579171
0.583313
0.5827059
0.5821378
0.581504
0.5808059
0.5800354
0.5791684
0.5833255
0.5827153
0.582144
0.5815071
0.5808062
0.5800335
0.5791647
0.5833412
0.5827269
0.5821507
0.5815093
0.5808053
0.58003
0.5791595
0.583362
0.5827411
0.5821568
0.5815097
0.5808018
0.5800237
0.5791515
0.5833906
0.5827574
0.582158
0.5815041
0.5807937
0.5800132
0.5791404
0.5834304
0.582774
0.5821539
0.5814904
0.5807777
0.5799976
0.5791116
0.5834834
0.5827823
0.5821383
0.5814658
0.5807536
0.5799625
0.5790766
0.5835279
0.5827607
0.5820932
0.5814237
0.5807041
0.5799178
0.5790373
0.583363
0.5826317
0.5820079
0.5813421
0.5806384
0.5798664
0.5789945
0.5818829
0.5822029
0.5818232
0.5812337
0.5805631
0.5798116
0.5789514
0.5658171
0.579946
0.5815421
0.5810986
0.5804807
0.5797568
0.5789106
0.5779056
0.5766525
0.5749813
0.5733929
0.5705681
0.5661296
0.5559084
0.5779301
0.5766822
0.5750179
0.5734355
0.5706202
0.5662013
0.5563281
0.5779628
0.5767164
0.5750613
0.572886
0.5706703
0.5662702
0.5565464
0.5779993
0.5767524
0.5750981
0.5735337
0.5707226
0.5663399
0.5567435
0.5780364
0.5767899
0.5751405
0.5735842
0.5707761
0.5664096
0.5568796
0.5780727
0.5768277
0.5751835
0.5736337
0.570829
0.5664789
0.5570057
0.5781069
0.5768643
0.5752256
0.5736805
0.5708451
0.5665478
0.5571255
0.5781364
0.5768995
0.5752666
0.5737261
0.5708602
0.5666162
0.5572341
0.578148
0.5769308
0.5753052
0.5737715
0.5709031
0.5666776
0.5573408
0.5781568
0.5769414
0.5753403
0.5738162
0.5709449
0.5667391
0.5574409
0.5781635
0.5769496
0.5753511
0.5738588
0.5709864
0.5668006
0.5575363
0.5781689
0.5769567
0.5753597
0.5738689
0.5710281
0.5668623
0.557628
0.5781733
0.576963
0.5753679
0.5738781
0.5710361
0.5669257
0.5577151
0.5781772
0.5769689
0.575376
0.5738876
0.571045
0.5669381
0.5577837
0.5781808
0.5769748
0.5753843
0.5738974
0.5710546
0.5669534
0.5577489
0.5781843
0.5769808
0.5753926
0.5739075
0.571065
0.5669702
0.5577022
0.5781878
0.5769869
0.5754012
0.5739186
0.5710816
0.5669879
0.557667
0.5781914
0.576993
0.5754104
0.5739345
0.5711989
0.5670073
0.5576171
0.5781951
0.5769991
0.5754199
0.5739468
0.5712203
0.5670273
0.5575736
0.5781992
0.5770057
0.57543
0.5739599
0.5712364
0.5670487
0.5575244
0.5782034
0.5770127
0.5754405
0.5739738
0.5712534
0.5670713
0.5574575
0.578208
0.57702
0.5754512
0.5739887
0.5712713
0.5670951
0.5574039
0.5782128
0.5770281
0.5754631
0.5740021
0.5712952
0.56712
0.5573481
0.5782198
0.5770371
0.5754781
0.5734554
0.5714212
0.5671584
0.5572947
0.5782269
0.5770462
0.5754901
0.5740339
0.571479
0.5671904
0.557244
0.5782336
0.5770564
0.5755052
0.5740589
0.5715066
0.5672213
0.5571926
0.5782434
0.5770692
0.5755233
0.5740824
0.5715353
0.5672573
0.5571365
0.5782694
0.5770845
0.5755405
0.5741066
0.5715734
0.5675026
0.5570891
0.5782849
0.5774274
0.5759749
0.5741181
0.571611
0.5676017
0.5570587
0.5782972
0.577442
0.5760001
0.5741483
0.5716497
0.5676463
0.5570365
0.5783315
0.577483
0.5760216
0.5741796
0.5716917
0.5678328
0.5570452
0.5783487
0.5775173
0.5760421
0.5742128
0.5717335
0.5680319
0.5571108
0.5783512
0.5775759
0.5760663
0.5742409
0.5717705
0.5680886
0.5573289
0.5783528
0.577588
0.5760982
0.5742484
0.5717867
0.5681794
0.5590899
0.5783663
0.5775891
0.5761103
0.574209
0.5717387
0.5683706
0.560386
0.5783802
0.5775785
0.576088
0.5740086
0.5715344
0.5687165
0.5642225
0.5783272
0.5774625
0.5757433
0.5734925
0.571143
0.5686799
0.5647247
0.5781531
0.5771446
0.5752293
0.5731446
0.5705658
0.5673445
0.5646427
0.5779025
0.5767056
0.5747106
0.5726257
0.5694566
0.5664056
0.5641278
0.5778143
0.5763488
0.5743985
0.5720244
0.5692618
0.5664044
0.5633111
0.578013
0.5764083
0.5746814
0.5717024
0.5689748
0.5661902
0.5610061
0.5788146
0.57717
0.5747965
0.5711823
0.5683907
0.5659162
0.5606357
0.5795396
0.5778222
0.5749019
0.570883
0.5680506
0.5657886
0.5599168
0.5801821
0.578267
0.5749557
0.5707774
0.5683242
0.5655872
0.5612915
0.5806111
0.5790729
0.575604
0.5709811
0.5681495
0.5660687
0.5621181
0.5810835
0.5796615
0.5762556
0.5712312
0.5682377
0.5668512
0.5619067
0.5812111
0.5798884
0.57618
0.5716555
0.5691758
0.5666959
0.5636416
0.5808967
0.5796175
0.5761544
0.5719124
0.5691143
0.5680396
0.5678742
0.5804402
0.5792467
0.5756446
0.5712411
0.5688874
0.567921
0.5689848
0.5799554
0.5786012
0.5746922
0.5707203
0.5682269
0.5683143
0.5675832
0.5793346
0.5783762
0.5736778
0.5700079
0.5687241
0.5678972
0.5657614
0.5786038
0.5776387
0.572979
0.5698551
0.5690034
0.5680242
0.5655769
0.5778169
0.5766985
0.5721581
0.5705281
0.5698629
0.5685347
0.566587
0.5769828
0.575406
0.5709471
0.5700632
0.5698282
0.5692323
0.5675407
0.5761845
0.574069
0.5696079
0.5691667
0.5690615
0.5687208
0.5688058
0.5757456
0.5730375
0.5691685
0.568373
0.5682947
0.5703126
0.57556
0.5724266
0.5689022
0.5683964
0.5681653
0.5698506
0.5756229
0.5724645
0.5692973
0.5694567
0.568382
0.5690031
0.5758655
0.5732412
0.5703413
0.5698023
0.5691262
0.5693391
0.5701055
0.5761383
0.5739723
0.570004
0.5690188
0.5688524
0.5680094
0.5683315
0.5758829
0.5737011
0.5694651
0.5679941
0.5683931
0.5679368
0.5692847
0.575929
0.5735352
0.5698084
0.5682422
0.5691094
0.5691325
0.5692588
0.5758017
0.5731981
0.5697474
0.569365
0.5694035
0.5690177
0.5670848
0.5759035
0.5734553
0.5699372
0.56965
0.5693385
0.5688899
0.5682166
0.5761736
0.5739569
0.5698638
0.5687057
0.5687698
0.5700158
0.567902
0.5765229
0.5743818
0.5702239
0.5680055
0.5681627
0.5695879
0.5659543
0.5767373
0.5749451
0.5705204
0.5680339
0.5678953
0.567619
0.5646713
0.5766688
0.5749643
0.5707476
0.5682851
0.5677365
0.5664022
0.5626976
0.5763997
0.5750409
0.5712043
0.5683422
0.5679215
0.5656918
0.5595469
0.5759535
0.5748481
0.5719034
0.5688036
0.5674383
0.5657711
0.5590719
0.5758411
0.5743587
0.5725946
0.5691448
0.5675295
0.5661521
0.5610182
0.5762852
0.5742266
0.5727664
0.5698811
0.5678196
0.5668699
0.5626953
0.5770027
0.5750927
0.5733189
0.5707088
0.56862
0.5668361
0.5633311
0.5776488
0.5760092
0.5744846
0.572224
0.5692272
0.5667402
0.5644374
0.5780798
0.5768058
0.5753657
0.5734958
0.5707802
0.5678837
0.5653545
0.5782567
0.5772671
0.5759033
0.5738999
0.5715198
0.5687486
0.5635551
0.5782986
0.5774302
0.5761247
0.5741725
0.571739
0.5686857
0.5621714
0.5783063
0.5774753
0.5761486
0.5742325
0.5718036
0.5683105
0.5594049
0.5783156
0.5774945
0.5760932
0.5742325
0.5717977
0.5681729
0.5583577
0.5783251
0.5775044
0.5760481
0.5742167
0.5717652
0.5681107
0.5577192
0.5783269
0.5774715
0.5760256
0.5741919
0.5717247
0.5680434
0.5568828
0.5783124
0.5774393
0.5760064
0.5741656
0.571684
0.5679594
0.5568978
0.5782823
0.5774004
0.5759907
0.5741407
0.5716465
0.5676732
0.5569428
0.5782739
0.577388
0.5759735
0.5741184
0.5716126
0.5676102
0.5569974
0.5782609
0.5770754
0.5755309
0.5740746
0.5715805
0.5675687
0.5570529
0.5782374
0.5770628
0.5755165
0.5740585
0.5715452
0.5673466
0.5571138
0.5782294
0.5770519
0.575501
0.5740409
0.5715152
0.5672348
0.5571832
0.578224
0.577043
0.5754874
0.5740243
0.571489
0.5672045
0.5572452
0.5782177
0.5770345
0.5754745
0.5740085
0.5714607
0.5671763
0.5573118
0.5782115
0.5770267
0.5754626
0.5739931
0.5713323
0.5671395
0.5573695
0.5782073
0.5770194
0.5754512
0.5739786
0.5712806
0.5671103
0.5574303
0.5782031
0.5770123
0.5754404
0.5739652
0.5712631
0.5670868
0.5574926
0.5781991
0.5770057
0.5754303
0.5739522
0.5712462
0.5670644
0.5575498
0.5781952
0.5769995
0.5754206
0.5739399
0.5712302
0.5670428
0.5576059
0.5781917
0.5769935
0.5754115
0.5739281
0.5712152
0.5670225
0.5576547
0.5781883
0.5769876
0.5754026
0.5739145
0.5711493
0.567003
0.5576986
0.578185
0.5769818
0.5753942
0.5739017
0.5710734
0.5669845
0.5577415
0.5781817
0.5769763
0.5753862
0.5738913
0.5710629
0.5669672
0.5577882
0.5781786
0.5769708
0.5753784
0.573881
0.5710529
0.5669509
0.5577905
0.5781753
0.5769655
0.5753708
0.5738711
0.5710439
0.566936
0.5577832
0.5781717
0.5769599
0.5753632
0.5738613
0.5710351
0.5668983
0.5576921
0.5781676
0.5769539
0.5753555
0.5738512
0.571011
0.5668362
0.5575957
0.5781625
0.576947
0.5753455
0.5738249
0.5709698
0.5667743
0.5574941
0.5781558
0.5769381
0.5753116
0.5737802
0.5709284
0.5667126
0.557391
0.5781468
0.5769088
0.5752745
0.5737349
0.5708868
0.5666506
0.5572811
0.5781204
0.5768757
0.575235
0.5736885
0.5708464
0.5665856
0.5571679
0.5780894
0.5768409
0.575194
0.5736437
0.5708575
0.5665164
0.5570507
0.5780558
0.5768043
0.5751519
0.5735963
0.5708067
0.5664469
0.5569264
0.5780196
0.5767664
0.575109
0.5735491
0.5707537
0.5663771
0.5567913
0.5779815
0.576728
0.5750661
0.5735023
0.5707004
0.5663069
0.5566277
0.5779442
0.5766907
0.5750239
0.5734572
0.5706472
0.5662363
0.5564095
0.577909
0.5766542
0.5749825
0.5734139
0.5705942
0.5661649
0.5560738
0.004919817
8.115516e-12
5.099278e-18
2.604912e-23
2.009334e-28
4.036426e-34
1.921962e-40
1.143584e-45
2.919717e-50
5.430362e-55
6.755519e-60
5.944199e-65
3.75356e-70
1.741713e-75
7.187917e-81
4.965288e-86
2.70047e-91
1.157183e-96
0.01086937
2.784277e-11
4.160752e-18
2.368949e-24
1.198511e-30
7.41701e-36
7.49059e-41
1.407902e-45
3.382222e-50
4.82684e-55
4.058034e-60
2.278902e-65
8.889068e-71
2.492267e-76
6.518551e-82
3.452717e-87
1.286227e-92
3.590807e-98
0.01266612
1.66245e-10
1.188259e-17
6.160897e-24
3.204762e-30
1.613764e-35
1.493751e-40
2.478819e-45
5.242475e-50
6.200045e-55
4.181341e-60
1.804052e-65
5.181801e-71
1.04075e-76
1.838794e-82
8.033805e-88
2.565654e-93
6.074228e-99
0.01369122
5.669024e-10
4.185209e-17
1.694776e-23
8.732161e-30
3.629659e-35
3.073686e-40
4.524775e-45
8.458167e-50
8.354606e-55
4.424103e-60
1.42762e-65
3.016556e-71
4.426856e-77
5.748466e-83
2.124766e-88
4.969083e-94
8.390663e-100
0.01470865
1.184799e-09
1.519705e-16
4.949137e-23
2.452984e-29
8.657241e-35
6.591039e-40
8.440353e-45
1.397532e-49
1.132306e-54
4.641008e-60
1.125031e-65
1.801278e-71
2.088201e-77
2.480754e-85
5.431168e-90
3.821137e-95
1.216597e-100
0.01571051
2.232311e-09
4.49081e-16
1.479868e-22
7.348567e-29
2.225469e-34
1.486073e-39
1.651165e-44
2.358707e-49
1.553953e-54
5.003057e-60
9.647716e-66
1.244551e-71
1.15856e-77
1.083087e-83
2.609597e-89
6.860102e-95
1.038819e-100
0.01673023
3.293295e-09
8.468416e-16
3.890353e-22
2.315035e-28
6.134058e-34
3.550329e-39
3.44268e-44
4.070121e-49
2.176074e-54
5.669754e-60
8.798474e-66
9.417709e-72
7.616575e-78
5.008329e-84
1.381347e-89
3.010372e-95
3.740057e-101
0.01774236
4.834744e-09
1.411148e-15
9.77687e-22
6.89367e-28
1.682843e-33
8.671219e-39
6.962148e-44
7.097064e-49
3.132984e-54
6.64159e-60
8.889944e-66
8.728145e-72
6.84421e-78
4.762922e-84
1.153375e-89
2.106622e-95
2.050195e-101
0.01874681
6.966134e-09
2.556026e-15
2.418955e-21
1.696581e-27
4.163519e-33
2.045353e-38
1.271811e-43
1.171972e-48
4.464664e-54
8.479903e-60
1.091026e-65
1.115756e-71
8.893103e-78
5.720305e-84
1.295398e-89
1.998582e-95
1.563076e-101
0.01979282
1.062894e-08
4.028799e-15
4.206774e-21
3.331654e-27
8.866858e-33
4.593908e-38
3.262631e-43
2.19519e-48
7.206882e-54
1.332088e-59
1.838706e-65
1.905342e-71
1.447043e-77
9.486417e-84
2.176062e-89
2.878142e-95
1.912276e-101
0.02084751
1.49531e-08
5.554101e-15
5.161169e-21
5.533191e-27
1.706036e-32
9.961592e-38
9.111388e-43
6.275191e-48
1.801163e-53
3.147178e-59
4.168542e-65
4.219222e-71
3.169457e-77
2.216284e-83
5.997216e-89
6.521302e-95
3.513862e-101
0.02187327
1.350247e-08
5.509002e-15
6.343936e-21
8.494633e-27
3.089238e-32
1.996246e-37
1.791103e-42
1.321436e-47
4.477143e-53
8.487052e-59
1.146356e-64
1.142867e-70
8.732379e-77
7.287635e-83
1.715101e-88
1.584204e-94
8.063397e-101
0.02292896
9.821866e-09
4.971612e-15
6.533008e-21
1.244192e-26
5.388823e-32
3.685411e-37
2.999285e-42
2.06043e-47
6.849732e-53
1.351457e-58
1.985764e-64
2.266618e-70
2.019741e-76
1.66032e-82
3.726359e-88
3.07385e-94
1.847994e-100
0.02414206
1.180228e-08
6.513169e-15
8.387892e-21
1.976853e-26
9.795143e-32
7.239686e-37
4.642852e-42
2.638002e-47
7.024368e-53
1.298276e-58
1.943133e-64
2.335642e-70
2.234291e-76
2.338125e-82
6.8151e-88
5.265685e-94
3.530361e-100
0.02970061
6.298024e-09
2.025666e-14
1.065341e-20
3.406084e-26
1.825392e-31
1.529472e-36
1.34977e-41
5.070733e-47
1.126706e-52
1.864076e-58
2.782833e-64
3.255129e-70
3.220626e-76
4.382292e-82
1.405989e-87
1.017015e-93
8.30755e-100
0.03094454
0
5.884984e-14
1.906966e-20
6.037469e-26
3.103383e-31
2.910714e-36
3.049125e-41
1.518419e-46
3.32251e-52
5.767773e-58
8.219095e-64
9.108573e-70
8.65603e-76
1.736729e-81
4.637193e-87
2.901189e-93
2.730187e-99
0.03293696
1.009212e-07
0
3.262367e-20
1.117645e-25
4.866275e-31
4.771163e-36
5.582561e-41
3.467271e-46
9.350673e-52
1.829515e-57
2.661577e-63
2.926799e-69
2.833337e-75
1.45895e-80
3.117864e-86
1.158952e-92
1.207546e-98
0.03515066
1.325951e-07
3.285995e-13
0
1.548676e-25
8.526457e-31
6.821366e-36
8.377491e-41
5.895039e-46
2.16789e-51
5.245488e-57
8.6047e-63
1.014652e-68
1.092678e-74
1.584551e-79
2.90605e-85
5.854185e-92
6.488268e-98
0.03754195
1.735118e-07
4.846806e-13
1.021249e-18
0
1.166368e-30
9.110988e-36
1.008072e-40
7.855535e-46
3.56281e-51
1.158115e-56
2.437749e-62
3.527434e-68
4.731375e-74
1.405015e-78
6.745198e-85
3.167505e-91
3.540678e-97
0.03994561
2.214503e-07
7.141679e-13
1.674081e-18
7.721602e-24
0
9.638838e-36
1.127764e-40
8.705385e-46
5.830692e-51
2.589628e-56
6.981385e-62
1.328124e-67
2.358623e-73
9.509973e-78
0
1.790183e-90
2.148273e-96
0.04235102
2.796931e-07
1.03782e-12
2.727477e-18
1.447431e-23
6.170839e-29
0
1.192773e-40
8.954092e-46
9.445851e-51
5.885367e-56
1.94603e-61
5.068161e-67
1.251886e-72
2.816181e-77
0
1.086562e-89
1.424226e-95
0.04485569
3.525183e-07
1.517258e-12
4.431925e-18
2.716898e-23
1.259496e-28
5.632844e-34
0
7.854306e-46
9.033603e-51
1.122144e-55
4.946925e-61
1.7863e-66
6.552501e-72
2.227558e-76
5.453615e-83
6.7885e-89
9.057383e-95
0.04752324
4.417469e-07
2.206846e-12
7.267455e-18
5.023082e-23
2.548002e-28
1.244735e-33
8.498688e-39
0
9.651265e-51
1.153809e-55
1.063418e-60
5.549697e-66
3.363051e-71
3.367695e-75
5.898135e-82
4.046768e-88
6.039995e-94
0.05035527
5.572259e-07
3.20324e-12
1.188173e-17
9.214001e-23
5.320383e-28
2.742373e-33
1.951499e-38
7.147691e-44
0
8.193439e-56
2.131202e-60
1.206342e-65
1.656345e-70
4.217289e-74
5.24134e-81
2.310687e-87
5.618573e-93
0.05342335
6.963378e-07
4.627048e-12
1.923202e-17
1.683901e-22
1.073608e-27
6.008606e-33
4.633324e-38
1.684457e-43
7.822457e-49
0
1.653211e-60
1.211417e-65
1.078096e-69
3.541967e-73
3.41232e-80
1.429986e-86
8.904963e-92
0.0566359
8.696445e-07
6.739286e-12
3.121089e-17
3.090678e-22
2.015306e-27
1.313383e-32
1.115143e-37
4.136187e-43
2.100965e-48
1.288425e-53
0
4.76937e-66
1.320093e-68
1.743602e-72
6.141888e-80
1.139522e-85
1.825311e-90
0.06010528
1.088903e-06
9.784922e-12
5.114569e-17
5.794727e-22
4.120944e-27
2.978227e-32
2.734721e-37
1.015344e-42
5.988389e-48
4.008917e-53
2.543202e-58
0
1.443724e-67
7.432849e-74
2.432515e-79
1.039912e-84
3.612598e-89
0.06383214
1.354303e-06
1.410842e-11
8.537663e-17
1.126236e-21
9.609806e-27
8.692091e-32
8.083632e-37
2.664119e-42
1.716809e-47
1.364486e-52
8.192152e-58
6.297213e-63
1.058254e-66
6.280957e-74
5.206748e-79
1.091778e-83
6.523675e-88
0.06778587
1.672861e-06
1.972111e-11
1.402681e-16
2.270973e-21
2.138559e-26
1.638237e-31
1.547153e-36
9.782132e-42
4.697723e-47
4.699447e-52
2.879152e-57
2.785151e-62
6.211038e-66
0
4.129932e-79
1.666041e-82
1.073198e-86
0.07209861
2.022151e-06
2.431271e-11
1.565266e-16
5.242451e-21
3.367831e-26
2.626226e-31
2.24687e-36
8.045688e-41
1.195735e-46
1.296039e-51
9.117512e-57
1.742091e-61
1.335365e-65
0
2.995455e-77
5.430797e-81
1.028076e-85
0.0767456
2.325665e-06
2.676054e-11
1.376975e-16
1.043147e-20
3.757522e-26
3.820523e-31
3.713312e-36
2.718332e-40
2.423665e-46
2.356873e-51
2.385837e-56
1.457878e-60
8.105558e-65
9.4474e-71
6.966956e-75
5.877684e-79
1.387385e-84
0.08170572
2.531282e-06
3.103771e-11
1.921549e-16
1.516731e-21
5.909766e-26
5.961996e-31
7.328866e-36
1.132666e-40
8.40346e-46
8.777593e-51
1.043614e-55
1.770463e-59
1.031699e-63
5.044719e-69
1.186214e-72
1.236547e-76
1.844457e-83
0.08724361
4.103374e-06
7.553457e-11
1.893751e-16
7.742423e-21
1.767064e-25
1.321628e-30
1.283121e-35
7.979085e-41
5.510963e-45
4.649112e-50
7.295562e-55
2.345438e-58
4.696098e-63
7.920724e-67
2.18248e-70
2.478403e-74
0
0.09412846
7.789174e-06
1.49055e-10
6.289021e-16
1.254812e-20
2.956506e-25
3.374167e-30
1.432184e-35
4.499825e-41
2.604801e-44
1.829041e-49
8.326422e-54
5.924195e-57
8.470953e-61
1.193267e-64
3.687223e-68
4.299656e-72
1.129722e-77
0.1128178
6.990767e-06
1.262409e-10
1.851586e-15
2.257541e-20
6.066716e-25
8.308523e-30
0
0
4.390447e-44
9.644878e-49
4.710685e-52
5.518161e-55
9.212863e-59
1.58844e-62
5.53685e-66
1.772123e-70
2.160948e-75
0.1263274
7.280101e-06
1.051909e-10
3.711467e-15
9.386142e-20
8.936944e-25
1.269471e-29
0
4.918546e-39
1.016276e-43
5.768579e-47
5.150109e-50
6.516911e-53
9.016528e-57
1.893832e-60
7.305988e-64
3.222705e-68
2.543319e-73
0.1512477
4.735345e-06
1.475549e-10
6.97832e-15
1.237318e-19
8.720838e-25
1.322049e-29
1.239178e-34
7.526568e-39
4.082548e-42
5.808417e-45
5.40463e-48
8.240763e-51
8.067688e-55
2.164969e-58
8.130504e-62
2.527648e-66
2.711111e-71
0.2562119
1.415808e-06
2.2741e-10
7.867341e-15
2.662817e-20
1.842711e-25
9.355896e-30
3.402018e-34
2.011904e-37
3.002859e-40
5.363802e-43
4.888342e-46
8.71781e-49
5.832472e-53
2.592262e-56
7.14528e-60
2.975919e-64
2.655204e-69
0.3884196
8.644748e-05
1.033235e-09
4.577255e-15
7.262248e-21
7.189417e-25
6.204978e-29
7.538436e-33
1.149133e-35
2.106438e-38
4.32967e-41
3.763591e-44
6.192014e-47
3.222721e-51
2.958152e-54
6.409683e-58
2.939104e-62
2.246077e-67
0.4943153
0.0003418853
2.529452e-09
0
8.334857e-21
3.041997e-24
5.127996e-28
2.968993e-31
6.610369e-34
1.329339e-36
3.018338e-39
2.115402e-42
3.595734e-45
1.366552e-49
1.32423e-52
3.232928e-56
2.742003e-60
1.589825e-65
0.5320159
0.0004601155
2.114211e-10
1.415338e-16
1.773065e-20
1.162318e-23
1.00788e-26
1.394156e-29
3.451863e-32
7.418911e-35
1.804715e-37
9.645639e-41
1.917875e-43
5.339762e-48
2.406642e-51
1.397561e-54
2.072581e-58
5.66081e-64
0.5363018
0.0006083988
0
7.982644e-17
2.204001e-19
2.506393e-22
3.869074e-25
6.31376e-28
1.562355e-30
3.603367e-33
8.897362e-36
4.733621e-39
8.805283e-42
1.799932e-46
1.159146e-49
5.141224e-53
7.982416e-57
1.264851e-62
0.5375356
0.0003232476
0
1.612673e-15
6.243747e-18
9.070957e-21
1.526544e-23
2.582138e-26
5.949279e-29
1.487363e-31
3.476291e-34
1.288013e-37
3.490864e-40
8.380161e-45
3.001522e-48
1.478268e-51
1.577343e-55
1.889481e-61
0.5400371
0.001139909
0
3.902452e-14
1.857948e-16
3.591601e-19
5.461914e-22
9.276821e-25
1.861203e-27
4.980724e-30
6.894412e-33
2.860751e-36
1.204641e-38
5.166478e-43
3.9212e-47
1.314337e-50
1.248953e-54
6.367601e-61
0.5418038
0.000714625
1.194564e-09
9.405122e-13
5.079337e-15
1.275629e-17
1.679553e-20
2.860585e-23
4.719742e-26
1.233596e-28
1.20995e-31
5.897744e-35
3.639778e-37
6.535934e-42
1.34132e-46
0
3.104594e-54
0
0.5422553
0.0007699268
1.440606e-08
2.387287e-11
1.266719e-13
3.869965e-16
4.238936e-19
7.389261e-22
6.721709e-25
1.698386e-27
1.596411e-30
1.104506e-33
9.076316e-36
8.736514e-41
0
2.376702e-49
0
0
0.5481267
0.0005581667
4.978416e-07
7.732725e-10
2.876759e-12
8.106616e-15
8.312119e-18
1.553873e-20
8.087145e-24
0
1.263916e-29
1.996827e-32
5.698355e-35
6.149941e-40
3.021032e-45
0
1.524383e-53
0
0.5527802
0.01322626
7.936942e-06
2.519844e-08
6.602417e-11
8.647733e-14
1.176913e-16
2.499717e-19
1.294997e-23
8.059873e-26
3.781501e-29
1.087995e-31
6.791813e-35
9.521092e-40
0
3.546852e-48
0
7.008879e-57
0.559564
0.05532251
0.0001697742
5.194127e-07
1.434582e-09
9.579695e-13
6.837117e-16
1.544417e-18
4.649406e-22
3.648675e-26
0
9.853002e-32
8.052002e-36
2.591047e-39
5.165381e-44
1.418895e-49
3.123117e-52
1.660922e-56
0.5653159
0.1720633
0.0007210473
5.755297e-06
1.061781e-21
0
0
0
0
3.391076e-41
1.258395e-44
5.580453e-48
5.196285e-54
0
0.5645101
0.5269296
7.269644e-29
1.32743e-33
6.039076e-38
3.319539e-38
3.381032e-42
5.297308e-47
0
3.520624e-58
0.5608316
0
2.166785e-35
4.397317e-36
5.019265e-40
1.146396e-44
0
9.070284e-54
1.555819e-33
6.004545e-34
5.285205e-38
1.779687e-42
0
3.123731e-51
4.819666e-32
3.910497e-36
2.545248e-40
5.629657e-45
8.296301e-49
2.506155e-30
1.96954e-34
1.75299e-38
3.948375e-42
1.834482e-46
3.768041e-29
7.28981e-33
2.711297e-36
4.717216e-40
2.982488e-44
1.115289e-28
2.238887e-31
1.708235e-34
4.855382e-38
4.48734e-42
0
2.879452e-30
4.09121e-33
1.89433e-36
2.69153e-40
1.589496e-28
3.289529e-30
5.404763e-33
3.015063e-36
1.101372e-39
0
0
3.648439e-30
1.025378e-32
5.569343e-36
1.68917e-39
0.5618606
0
6.536618e-28
3.467466e-30
7.897861e-33
8.847532e-36
3.044488e-39
0.5607992
0.5375809
0
2.355145e-24
1.931577e-26
5.471083e-29
5.435666e-32
2.88574e-35
1.062326e-38
0.5604814
0.2700538
0.001500795
0
8.828553e-20
2.381281e-21
1.398063e-23
4.050346e-26
1.005152e-28
4.723104e-32
4.66779e-35
1.071633e-38
0.5581387
0.1099327
0.0004809283
7.242018e-06
1.595957e-07
3.601921e-09
3.088816e-11
1.640786e-13
1.320574e-15
1.545127e-17
1.826099e-19
9.161481e-22
3.074386e-24
3.671994e-27
9.577086e-31
2.610189e-33
4.145791e-37
3.597757e-41
0.5529304
0.03100952
2.927098e-05
1.978616e-07
2.535603e-09
3.248904e-11
2.408012e-13
1.637718e-15
1.009098e-17
6.212781e-20
4.161583e-22
8.820815e-25
1.461662e-27
3.619148e-30
2.052267e-33
2.204247e-36
0
7.369158e-45
0.5512331
0.009889187
2.717242e-06
2.116533e-08
8.165956e-11
3.849843e-13
2.017223e-15
1.315644e-17
7.658061e-20
1.903751e-22
9.159e-25
2.892584e-27
3.095357e-30
1.156866e-33
2.125877e-36
6.900533e-40
1.695011e-42
1.152326e-46
0.547854
0.002143952
9.943937e-07
1.427812e-09
4.960318e-12
2.518157e-14
8.381143e-17
2.636488e-19
7.71042e-22
2.187392e-24
2.062586e-27
4.877023e-30
4.000041e-33
8.58925e-36
5.634582e-39
7.8922e-42
6.628207e-46
9.271767e-49
0.5415641
0.001836847
1.361464e-06
3.345283e-09
9.960803e-12
2.193675e-14
5.527022e-17
1.378854e-19
3.169527e-22
6.662398e-25
8.012184e-28
1.021103e-30
0
1.789723e-37
2.132024e-40
8.063135e-44
5.088172e-47
0
0.5409933
0.00102663
5.414873e-07
9.372307e-10
2.37661e-12
6.248503e-15
1.640055e-17
3.671613e-20
8.354817e-23
1.594005e-25
2.869955e-28
4.016433e-31
4.801213e-34
1.514993e-38
3.504052e-41
2.533987e-44
2.83309e-48
1.593892e-51
0.5410565
0.001345494
1.039516e-06
1.448035e-09
3.590717e-12
8.141506e-15
1.569075e-17
2.891489e-20
5.541833e-23
8.978168e-26
1.301102e-28
2.438219e-32
6.05226e-35
1.465668e-40
1.971255e-41
1.46871e-44
7.904415e-48
5.896301e-52
0.53599
0.002325734