/*--------------------------------*- C++ -*----------------------------------*\
| =========                 |                                                 |
| \\      /  F ield         | OpenFOAM: The Open Source CFD Toolbox           |
|  \\    /   O peration     | Version:  2206                                  |
|   \\  /    A nd           | Website:  www.openfoam.com                      |
|    \\/     M anipulation  |                                                 |
\*---------------------------------------------------------------------------*/
FoamFile
{
    version     2.0;
    format      ascii;
    arch        "LSB;label=32;scalar=64";
    class       volScalarField;
    location    "2.4";
    object      alpha.a_0;
}
// * * * * * * * * * * * * * * * * * * * * * * * * * * * * * * * * * * * * * //

dimensions      [0 0 0 0 0 0 0];

internalField   nonuniform List<scalar> 
13078
(
0.5104007
0.5577838
0.5796953
0.5808332
0.5804437
0.5797413
0.578904
0.5637701
0.5792018
0.581374
0.5810883
0.5804908
0.5797709
0.5789281
0.5816724
0.5821359
0.5818234
0.5812354
0.5805676
0.5798211
0.5789655
0.5833471
0.5826211
0.5819917
0.5813456
0.5806456
0.579876
0.5790082
0.5835252
0.582756
0.5820887
0.5814162
0.5807114
0.5799289
0.5790509
0.5834835
0.5827795
0.582135
0.5814634
0.5807497
0.5799729
0.579091
0.5834298
0.5827724
0.582154
0.5814911
0.580777
0.5799961
0.5791249
0.5833895
0.5827558
0.5821595
0.5815046
0.5807925
0.5800127
0.5791403
0.5833603
0.5827393
0.5821556
0.5815083
0.5808006
0.5800231
0.5791518
0.5833389
0.5827249
0.5821491
0.581508
0.5808043
0.5800294
0.5791596
0.5833228
0.582713
0.5821423
0.5815058
0.5808054
0.5800331
0.5791651
0.5833099
0.5827034
0.5821358
0.5815026
0.580805
0.5800352
0.5791689
0.5832994
0.5826952
0.5821299
0.5814992
0.5808038
0.5800361
0.5791717
0.5832903
0.582688
0.5821245
0.5814959
0.5808025
0.5800365
0.5791739
0.5832824
0.5826817
0.5821198
0.5814967
0.5808065
0.5800373
0.5791757
0.5832751
0.5826759
0.5821155
0.5814982
0.5808086
0.5800377
0.5791774
0.583268
0.5826702
0.582111
0.5814956
0.5808074
0.5800378
0.5791791
0.583261
0.5826646
0.5821066
0.5814928
0.580806
0.5800378
0.5791808
0.5832538
0.5826589
0.5821022
0.5814899
0.5808047
0.5800383
0.5791824
0.5832463
0.5826531
0.5820977
0.5814873
0.5808093
0.5800468
0.5791852
0.5832384
0.5826468
0.5820929
0.5814846
0.5808146
0.5800525
0.579188
0.5832297
0.58264
0.5820876
0.5814811
0.580814
0.5800533
0.5791902
0.5832201
0.5826326
0.5820818
0.5814774
0.5808124
0.5800544
0.5791935
0.5832094
0.5826243
0.5820754
0.5814733
0.5808115
0.5800636
0.5792082
0.5831974
0.5826149
0.5820681
0.5814687
0.5808102
0.5800739
0.5792189
0.5831838
0.5826043
0.58206
0.5814635
0.5808079
0.5800765
0.5792238
0.5831682
0.5825921
0.5820507
0.5814574
0.5808053
0.5800777
0.5792292
0.5831505
0.5825784
0.5820401
0.5814505
0.5808023
0.5800794
0.5792465
0.5831301
0.5825624
0.582028
0.5814425
0.5807985
0.5800803
0.5792647
0.5831091
0.5825466
0.582015
0.5814333
0.5807935
0.5800794
0.5792716
0.5830844
0.5825278
0.582
0.5814229
0.5807874
0.5800775
0.5792752
0.5830567
0.5825105
0.5819892
0.5814124
0.58078
0.5800737
0.5792754
0.5830272
0.582492
0.5819802
0.5814098
0.5807747
0.5800705
0.5792739
0.5829979
0.5824742
0.5819741
0.5814064
0.5807759
0.5800771
0.5792818
0.5829726
0.5824669
0.5819827
0.5814385
0.580823
0.5801208
0.5793204
0.582962
0.5824858
0.5820351
0.5815314
0.5809452
0.5802464
0.5794178
0.5829798
0.5825662
0.5821778
0.5817192
0.5811599
0.5804187
0.5795245
0.5830544
0.582751
0.5824278
0.5819834
0.5814106
0.5806161
0.5795873
0.583224
0.5830324
0.5827389
0.5822767
0.5816488
0.5808136
0.5795815
0.5835131
0.5833696
0.583058
0.5825639
0.5818746
0.5809678
0.5796426
0.5838942
0.5837076
0.5833955
0.5828287
0.582106
0.5811526
0.5798476
0.5843451
0.5840085
0.5837006
0.5831347
0.5823478
0.5813742
0.5801548
0.5848091
0.5842799
0.5839486
0.583412
0.5826715
0.5816106
0.5806261
0.5852428
0.5844426
0.58417
0.5836018
0.5828466
0.5819408
0.5810635
0.5855222
0.5845265
0.5842664
0.5836386
0.5828767
0.582269
0.5816536
0.585617
0.5845488
0.5842508
0.5835234
0.5828986
0.5824317
0.5820159
0.5856124
0.5845269
0.5840776
0.5833984
0.5829066
0.5825032
0.5819916
0.5856256
0.5844938
0.5839773
0.5833379
0.5829866
0.5825436
0.5818778
0.585617
0.5844555
0.5839713
0.5833397
0.5829928
0.5825117
0.581725
0.5855724
0.584449
0.5839901
0.5833739
0.5830136
0.5823619
0.5814214
0.5854754
0.5845045
0.5840734
0.5833652
0.5829172
0.5820563
0.580887
0.5852764
0.5844717
0.5841221
0.5834364
0.5828368
0.5817161
0.5802871
0.5850039
0.5843261
0.583889
0.5832389
0.5825007
0.5812256
0.5796065
0.5847234
0.5841303
0.5836633
0.5829162
0.582012
0.5805524
0.579045
0.5844498
0.5839151
0.5833987
0.5825682
0.5815445
0.5800429
0.5785358
0.5841647
0.5836657
0.5831079
0.5822441
0.5811929
0.5797162
0.5781599
0.5839366
0.5833522
0.5827641
0.5819253
0.580947
0.5795311
0.5780033
0.5838486
0.583136
0.5825519
0.5817743
0.5809032
0.5795441
0.5780747
0.5837851
0.582948
0.5823741
0.5816534
0.580885
0.5795974
0.5781905
0.5837494
0.5827608
0.5821755
0.5815012
0.5808179
0.5796661
0.5782167
0.5837845
0.582644
0.582049
0.581262
0.5806466
0.5795467
0.578095
0.5838677
0.5825964
0.5819701
0.5811245
0.580552
0.579517
0.5780897
0.5839383
0.5826022
0.5818687
0.5809772
0.5804169
0.5795284
0.5780607
0.58399
0.5827036
0.5819394
0.5809509
0.5803309
0.5795527
0.578144
0.5840594
0.5829255
0.5821524
0.5810715
0.5802787
0.5795904
0.5783365
0.5841833
0.5831596
0.5824641
0.581306
0.580188
0.579371
0.5784387
0.5843137
0.5833418
0.5827427
0.5815839
0.580241
0.5792038
0.5784359
0.5843079
0.5834229
0.5828361
0.5818454
0.5804679
0.5790921
0.5781438
0.5841171
0.5834287
0.5828439
0.5819871
0.5807534
0.5791804
0.5777772
0.583827
0.5833487
0.5827941
0.5819761
0.5809136
0.5794492
0.5777504
0.5835279
0.5831933
0.5827039
0.5819482
0.5809709
0.579717
0.5780571
0.583262
0.5830112
0.5825846
0.5819172
0.581042
0.5799207
0.5785286
0.583067
0.5828034
0.5824194
0.5818578
0.5811032
0.5801491
0.5788106
0.5829541
0.5826128
0.5822385
0.5817309
0.5810851
0.5802646
0.5791135
0.5829147
0.5824843
0.5820726
0.5815812
0.5809905
0.5802336
0.5792837
0.582916
0.5824308
0.5819695
0.5814558
0.5808593
0.5801413
0.5792971
0.5829377
0.5824249
0.5819345
0.5813927
0.5807722
0.5800652
0.5792568
0.5829711
0.5824412
0.5819381
0.581375
0.5807434
0.5800325
0.5792345
0.5830056
0.5824662
0.5819542
0.5813772
0.5807391
0.5800341
0.5792375
0.5830387
0.5824918
0.5819709
0.5813927
0.5807529
0.5800453
0.5792474
0.5830698
0.5825139
0.5819848
0.5814023
0.5807656
0.5800562
0.5792553
0.5830973
0.5825332
0.5819989
0.5814168
0.5807772
0.580064
0.5792588
0.5831207
0.5825524
0.5820158
0.5814298
0.5807864
0.5800693
0.5792587
0.5831404
0.5825683
0.5820298
0.5814407
0.5807936
0.5800729
0.5792554
0.5831593
0.5825839
0.5820424
0.58145
0.5807992
0.5800742
0.5792393
0.5831758
0.5825971
0.5820532
0.5814576
0.5808035
0.5800742
0.5792245
0.5831903
0.5826088
0.5820626
0.5814641
0.580807
0.5800742
0.5792205
0.5832028
0.5826187
0.5820705
0.5814696
0.5808098
0.5800726
0.5792169
0.583214
0.5826275
0.5820775
0.5814744
0.5808116
0.5800626
0.5792064
0.5832238
0.5826354
0.5820837
0.5814785
0.5808128
0.5800541
0.5791926
0.5832326
0.5826423
0.5820892
0.581482
0.5808145
0.5800533
0.5791898
0.5832406
0.5826486
0.5820942
0.5814854
0.5808151
0.5800526
0.5791878
0.5832479
0.5826544
0.5820986
0.5814878
0.5808094
0.5800466
0.5791851
0.5832548
0.5826597
0.5821027
0.58149
0.5808048
0.5800383
0.5791823
0.5832613
0.5826648
0.5821066
0.5814927
0.580806
0.5800378
0.5791808
0.5832675
0.5826697
0.5821105
0.5814953
0.5808072
0.5800378
0.5791794
0.5832738
0.5826747
0.5821145
0.5814975
0.5808084
0.5800378
0.5791778
0.5832801
0.5826797
0.5821182
0.5814955
0.5808059
0.5800374
0.5791762
0.5832868
0.5826851
0.5821222
0.5814946
0.580802
0.5800367
0.5791747
0.5832943
0.582691
0.5821269
0.5814976
0.5808034
0.5800367
0.579173
0.5833027
0.5826979
0.582132
0.5815008
0.5808048
0.5800364
0.5791711
0.5833129
0.5827058
0.5821377
0.5815041
0.5808059
0.5800355
0.5791685
0.5833253
0.5827153
0.582144
0.5815071
0.5808063
0.5800336
0.5791648
0.583341
0.5827268
0.5821506
0.5815093
0.5808053
0.5800301
0.5791596
0.5833618
0.582741
0.5821568
0.5815097
0.5808019
0.5800238
0.5791517
0.5833903
0.5827573
0.5821579
0.5815041
0.5807937
0.5800133
0.5791405
0.58343
0.5827738
0.5821538
0.5814904
0.5807778
0.5799977
0.5791118
0.5834829
0.5827821
0.5821382
0.5814659
0.5807537
0.5799627
0.5790768
0.5835273
0.5827607
0.5820933
0.5814239
0.5807043
0.5799181
0.5790375
0.5833632
0.5826321
0.5820082
0.5813424
0.5806387
0.5798667
0.5789948
0.5818882
0.5822053
0.581824
0.5812342
0.5805635
0.579812
0.5789517
0.5658335
0.5799549
0.5815442
0.5810993
0.5804812
0.5797572
0.5789109
0.5779059
0.5766528
0.5749815
0.573393
0.5705682
0.5661297
0.5559089
0.5779304
0.5766824
0.5750182
0.5734357
0.5706203
0.5662014
0.5563286
0.5779631
0.5767167
0.5750615
0.5728862
0.5706704
0.5662702
0.556547
0.5779995
0.5767526
0.5750983
0.5735338
0.5707227
0.5663399
0.556744
0.5780367
0.5767901
0.5751407
0.5735843
0.5707762
0.5664097
0.5568802
0.5780729
0.5768279
0.5751837
0.5736338
0.5708291
0.5664789
0.5570064
0.5781071
0.5768645
0.5752258
0.5736806
0.5708452
0.5665479
0.5571263
0.5781366
0.5768997
0.5752668
0.5737262
0.5708603
0.5666162
0.557235
0.5781481
0.576931
0.5753053
0.5737716
0.5709032
0.5666777
0.5573418
0.578157
0.5769416
0.5753404
0.5738163
0.570945
0.5667392
0.557442
0.5781637
0.5769497
0.5753513
0.5738589
0.5709865
0.5668007
0.5575375
0.5781691
0.5769568
0.5753598
0.573869
0.5710282
0.5668624
0.5576293
0.5781735
0.5769632
0.5753681
0.5738782
0.5710362
0.5669258
0.5577166
0.5781774
0.5769691
0.5753762
0.5738878
0.5710451
0.5669383
0.5577854
0.5781809
0.576975
0.5753844
0.5738975
0.5710547
0.5669536
0.5577506
0.5781845
0.576981
0.5753928
0.5739076
0.5710652
0.5669704
0.5577041
0.578188
0.5769871
0.5754014
0.5739187
0.5710817
0.5669881
0.5576689
0.5781916
0.5769932
0.5754106
0.5739346
0.5711991
0.5670075
0.5576192
0.5781953
0.5769993
0.5754201
0.573947
0.5712205
0.5670276
0.5575758
0.5781994
0.5770059
0.5754302
0.5739601
0.5712366
0.567049
0.5575267
0.5782036
0.5770129
0.5754407
0.5739739
0.5712536
0.5670716
0.5574599
0.5782083
0.5770203
0.5754514
0.5739888
0.5712715
0.5670954
0.5574065
0.5782131
0.5770284
0.5754633
0.5740022
0.5712954
0.5671203
0.5573509
0.5782201
0.5770373
0.5754783
0.5734556
0.5714213
0.5671587
0.5572976
0.5782271
0.5770465
0.5754903
0.5740341
0.5714792
0.5671907
0.557247
0.5782339
0.5770567
0.5755054
0.574059
0.5715068
0.5672217
0.5571957
0.5782437
0.5770695
0.5755236
0.5740826
0.5715354
0.5672577
0.5571398
0.5782697
0.5770848
0.5755408
0.5741067
0.5715736
0.567503
0.5570925
0.5782852
0.5774277
0.5759752
0.5741183
0.5716112
0.567602
0.5570623
0.5782976
0.5774423
0.5760004
0.5741485
0.5716498
0.5676467
0.5570402
0.578332
0.5774834
0.576022
0.5741798
0.5716918
0.5678331
0.5570489
0.5783492
0.5775177
0.5760425
0.574213
0.5717336
0.5680322
0.5571144
0.5783518
0.5775764
0.5760667
0.5742411
0.5717707
0.5680889
0.5573324
0.5783535
0.5775886
0.5760988
0.5742489
0.5717871
0.5681796
0.5590924
0.5783672
0.5775899
0.5761113
0.5742098
0.5717392
0.5683707
0.5603885
0.5783814
0.5775799
0.5760898
0.5740101
0.5715349
0.5687165
0.5642232
0.5783289
0.5774646
0.5757459
0.5734942
0.5711429
0.5686791
0.5647281
0.5781553
0.5771473
0.5752319
0.573145
0.5705631
0.5673392
0.5646338
0.5779049
0.5767081
0.5747125
0.572624
0.5694488
0.5663917
0.564114
0.5778171
0.5763512
0.5744001
0.5720208
0.5692524
0.5663921
0.5633031
0.5780169
0.5764109
0.5746833
0.5716976
0.5689639
0.5661733
0.5609951
0.5788183
0.5771732
0.574797
0.5711733
0.5683745
0.5658943
0.5606175
0.5795426
0.577827
0.5748999
0.5708693
0.5680296
0.565759
0.5598835
0.5801844
0.5782705
0.5749523
0.5707594
0.5682993
0.5655438
0.5612295
0.5806105
0.5790762
0.5755968
0.5709606
0.5681163
0.5660051
0.5620441
0.5810802
0.5796624
0.576248
0.5712025
0.5681855
0.5667727
0.5618372
0.5812067
0.579887
0.5761641
0.5716219
0.5690901
0.5666307
0.5636125
0.5808919
0.5796136
0.576141
0.5718656
0.5690119
0.5679697
0.5679197
0.5804348
0.5792456
0.5756261
0.571186
0.5687534
0.5678319
0.5689754
0.5799539
0.5785983
0.5746667
0.5706466
0.5680621
0.5682184
0.5675224
0.5793335
0.5783778
0.5736413
0.5699043
0.5685484
0.5677896
0.5656798
0.5786022
0.5776398
0.5729378
0.5697213
0.5688127
0.5679139
0.5655029
0.5778115
0.576703
0.5721095
0.5703612
0.5696989
0.5684345
0.5664924
0.5769583
0.5753882
0.5708781
0.5698948
0.5696897
0.5691275
0.5674029
0.5761425
0.5740222
0.5695172
0.5690495
0.568955
0.5685971
0.5684655
0.5756947
0.5729786
0.5690832
0.5682824
0.5681893
0.5700418
0.5755063
0.5723621
0.5688147
0.5683
0.5680191
0.5695785
0.5755717
0.5724013
0.5691995
0.5693288
0.5682167
0.5687707
0.5758207
0.5731849
0.5702434
0.569653
0.5689771
0.5692171
0.5699509
0.5761
0.5739243
0.5699107
0.5688669
0.5687058
0.5678882
0.5682949
0.5758446
0.5736574
0.5693827
0.5678271
0.5682331
0.5677903
0.5692714
0.5758903
0.573493
0.5697244
0.5680355
0.5689257
0.5689959
0.5692401
0.5757671
0.5731554
0.5696537
0.5691383
0.5692345
0.5688947
0.5670113
0.5758734
0.5734197
0.5698578
0.5694185
0.5691922
0.5687891
0.5681778
0.5761503
0.5739293
0.5697978
0.5684664
0.5685973
0.5699627
0.5679912
0.5765045
0.5743594
0.5701729
0.5677879
0.5679735
0.5695483
0.5660334
0.5767236
0.574931
0.5704766
0.5678802
0.5677106
0.567547
0.564639
0.5766579
0.5749531
0.5707099
0.5681628
0.5676128
0.5663057
0.562653
0.5763899
0.5750325
0.5711724
0.568248
0.5678153
0.5656136
0.5594913
0.5759465
0.5748405
0.5718777
0.5687341
0.5673299
0.5656969
0.5589935
0.5758384
0.5743531
0.5725786
0.5690989
0.567432
0.5660815
0.5609346
0.576288
0.5742255
0.5727583
0.5698561
0.5677494
0.5668035
0.5626415
0.5770065
0.5750971
0.5733181
0.5706995
0.5685957
0.5667936
0.563313
0.5776512
0.5760128
0.5744883
0.5722241
0.5692215
0.5667295
0.5644449
0.5780816
0.5768078
0.5753679
0.5734974
0.5707808
0.5678833
0.5653592
0.5782583
0.5772687
0.5759047
0.5739011
0.5715207
0.5687495
0.5635609
0.5783
0.5774316
0.5761258
0.5741734
0.5717399
0.5686868
0.5621756
0.5783074
0.5774765
0.5761496
0.5742333
0.5718044
0.5683115
0.5594101
0.5783165
0.5774955
0.576094
0.5742332
0.5717983
0.5681737
0.5583621
0.5783259
0.5775053
0.5760488
0.5742173
0.5717657
0.5681113
0.5577228
0.5783276
0.5774722
0.5760262
0.5741924
0.5717251
0.5680439
0.5568869
0.578313
0.5774399
0.5760069
0.574166
0.5716844
0.5679599
0.5569016
0.5782829
0.5774009
0.5759911
0.574141
0.5716468
0.5676738
0.5569467
0.5782744
0.5773885
0.5759739
0.5741187
0.5716129
0.5676107
0.5570012
0.5782613
0.5770758
0.5755313
0.574075
0.5715808
0.5675691
0.5570565
0.5782378
0.5770632
0.5755168
0.5740589
0.5715454
0.567347
0.5571173
0.5782298
0.5770522
0.5755013
0.5740412
0.5715155
0.5672353
0.5571866
0.5782243
0.5770433
0.5754877
0.5740246
0.5714893
0.5672049
0.5572485
0.578218
0.5770348
0.5754748
0.5740088
0.5714609
0.5671767
0.5573149
0.5782118
0.577027
0.5754628
0.5739934
0.5713326
0.5671399
0.5573725
0.5782076
0.5770197
0.5754514
0.5739789
0.5712808
0.5671106
0.5574331
0.5782034
0.5770126
0.5754407
0.5739654
0.5712633
0.5670872
0.5574953
0.5781993
0.577006
0.5754305
0.5739524
0.5712464
0.5670647
0.5575524
0.5781954
0.5769997
0.5754208
0.5739401
0.5712304
0.5670431
0.5576084
0.5781919
0.5769938
0.5754117
0.5739283
0.5712154
0.5670228
0.5576571
0.5781885
0.5769878
0.5754028
0.5739147
0.5711495
0.5670032
0.5577009
0.5781852
0.576982
0.5753943
0.5739019
0.5710736
0.5669848
0.5577436
0.5781819
0.5769764
0.5753864
0.5738915
0.571063
0.5669674
0.5577902
0.5781788
0.576971
0.5753786
0.5738812
0.5710531
0.5669511
0.5577925
0.5781755
0.5769657
0.5753709
0.5738713
0.571044
0.5669362
0.557785
0.5781719
0.5769601
0.5753634
0.5738614
0.5710352
0.5668985
0.5576937
0.5781677
0.576954
0.5753557
0.5738514
0.5710111
0.5668364
0.5575972
0.5781627
0.5769472
0.5753457
0.5738251
0.5709699
0.5667745
0.5574955
0.578156
0.5769382
0.5753118
0.5737804
0.5709285
0.5667127
0.5573922
0.578147
0.576909
0.5752747
0.573735
0.570887
0.5666508
0.5572822
0.5781206
0.5768758
0.5752351
0.5736887
0.5708465
0.5665857
0.5571689
0.5780896
0.5768411
0.5751942
0.5736439
0.5708576
0.5665165
0.5570515
0.578056
0.5768046
0.5751521
0.5735965
0.5708068
0.566447
0.5569272
0.5780198
0.5767666
0.5751092
0.5735493
0.5707538
0.5663772
0.556792
0.5779818
0.5767282
0.5750663
0.5735025
0.5707005
0.5663069
0.5566283
0.5779445
0.576691
0.5750241
0.5734574
0.5706472
0.5662363
0.5564101
0.5779093
0.5766544
0.5749827
0.5734141
0.5705943
0.566165
0.5560744
0.004938286
8.23114e-12
5.330613e-18
2.684558e-23
2.002931e-28
3.956832e-34
1.969885e-40
1.163059e-45
2.915971e-50
5.394492e-55
6.688145e-60
5.852888e-65
3.667713e-70
1.687432e-75
6.888322e-81
4.687805e-86
2.506367e-91
1.058164e-96
0.01088952
2.790553e-11
4.241726e-18
2.415539e-24
1.229739e-30
7.597018e-36
7.67768e-41
1.426749e-45
3.370585e-50
4.764175e-55
3.984017e-60
2.223404e-65
8.623136e-71
2.404359e-76
6.2283e-82
3.250197e-87
1.193219e-92
3.295527e-98
0.01268429
1.681248e-10
1.209576e-17
6.30018e-24
3.284489e-30
1.651336e-35
1.529446e-40
2.515794e-45
5.23332e-50
6.134119e-55
4.116258e-60
1.769883e-65
5.069734e-71
1.016869e-76
1.789045e-82
7.69204e-88
2.419519e-93
5.668936e-99
0.01370995
5.824196e-10
4.250494e-17
1.730889e-23
8.938929e-30
3.708186e-35
3.143235e-40
4.59979e-45
8.460226e-50
8.293008e-55
4.377139e-60
1.41103e-65
2.983785e-71
4.391284e-77
5.705501e-83
2.086756e-88
4.832082e-94
8.075216e-100
0.01472847
1.220344e-09
1.546467e-16
5.047566e-23
2.506082e-29
8.824373e-35
6.730936e-40
8.611597e-45
1.401549e-49
1.128719e-54
4.623969e-60
1.124083e-65
1.810861e-71
2.117714e-77
1.083323e-84
5.0266e-90
3.601963e-95
1.165376e-100
0.01573191
2.308401e-09
4.608074e-16
1.512006e-22
7.487709e-29
2.262585e-34
1.514135e-39
1.685622e-44
2.372358e-49
1.558711e-54
5.037576e-60
9.804501e-66
1.281803e-71
1.210829e-77
1.124337e-83
2.628424e-89
6.79666e-95
1.028846e-100
0.0167535
3.409417e-09
8.749575e-16
3.985171e-22
2.358495e-28
6.231157e-34
3.613681e-39
3.516527e-44
4.110497e-49
2.201843e-54
5.798147e-60
9.130213e-66
9.861422e-72
7.989048e-78
5.252261e-84
1.411511e-89
3.05928e-95
3.824252e-101
0.01776774
5.01214e-09
1.455809e-15
1.000657e-21
7.060533e-28
1.713814e-33
8.830331e-39
7.125102e-44
7.21768e-49
3.211389e-54
6.890999e-60
9.245553e-66
9.082103e-72
7.116057e-78
4.940233e-84
1.195354e-89
2.196795e-95
2.158065e-101
0.01877447
7.216306e-09
2.639026e-15
2.486653e-21
1.752175e-27
4.258998e-33
2.085902e-38
1.311004e-43
1.203394e-48
4.618978e-54
8.782039e-60
1.128841e-65
1.153372e-71
9.197155e-78
5.907788e-84
1.341225e-89
2.077014e-95
1.627006e-101
0.01982298
1.099975e-08
4.172575e-15
4.363061e-21
3.456153e-27
9.098988e-33
4.688911e-38
3.274464e-43
2.244342e-48
7.403161e-54
1.369429e-59
1.890401e-65
1.959625e-71
1.489007e-77
9.731616e-84
2.226985e-89
2.960421e-95
1.974482e-101
0.02088035
1.559458e-08
5.78203e-15
5.356552e-21
5.746162e-27
1.753048e-32
1.018479e-37
9.307928e-43
6.418692e-48
1.840239e-53
3.216079e-59
4.262018e-65
4.314498e-71
3.240228e-77
2.25403e-83
6.100276e-89
6.668311e-95
3.603917e-101
0.02190911
1.421865e-08
5.767549e-15
6.613855e-21
8.819901e-27
3.178178e-32
2.046676e-37
1.837792e-42
1.362336e-47
4.597957e-53
8.670477e-59
1.169746e-64
1.167864e-70
8.914311e-77
7.356174e-83
1.75351e-88
1.626299e-94
8.256504e-101
0.02296809
1.025055e-08
5.183734e-15
6.80586e-21
1.288168e-26
5.539532e-32
3.776279e-37
3.086484e-42
2.13525e-47
7.136755e-53
1.409906e-58
2.070458e-64
2.358218e-70
2.094699e-76
1.718797e-82
3.828572e-88
3.165884e-94
1.898443e-100
0.02418412
1.233668e-08
6.706778e-15
8.69218e-21
2.040146e-26
1.005321e-31
7.394321e-37
4.759632e-42
2.730076e-47
7.308743e-53
1.352515e-58
2.024386e-64
2.433523e-70
2.32572e-76
2.412203e-82
7.010933e-88
5.43437e-94
3.629015e-100
0.02974505
6.923838e-09
2.009952e-14
1.107375e-20
3.5097e-26
1.876605e-31
1.565172e-36
1.367092e-41
5.180811e-47
1.153153e-52
1.907981e-58
2.851985e-64
3.340312e-70
3.305244e-76
4.460998e-82
1.435238e-87
1.040884e-93
8.470968e-100
0.03099185
0
6.217373e-14
1.933965e-20
6.215111e-26
3.199334e-31
2.990365e-36
3.120658e-41
1.552623e-46
3.391832e-52
5.877395e-58
8.37598e-64
9.289504e-70
8.829754e-76
1.731407e-81
4.650143e-87
2.948142e-93
2.765953e-99
0.03298803
1.050225e-07
0
3.290845e-20
1.152555e-25
5.009407e-31
4.918679e-36
5.741071e-41
3.571956e-46
9.574201e-52
1.86617e-57
2.710277e-63
2.977281e-69
2.877278e-75
1.432471e-80
3.069201e-86
1.168669e-92
1.215155e-98
0.03520513
1.378999e-07
3.407377e-13
0
1.639445e-25
8.771555e-31
7.0477e-36
8.660434e-41
6.102479e-46
2.234512e-51
5.379389e-57
8.787208e-63
1.032451e-68
1.106785e-74
1.562825e-79
2.895436e-85
5.884153e-92
6.522914e-98
0.03759995
1.803541e-07
5.022066e-13
1.056586e-18
0
1.233102e-30
9.425874e-36
1.045147e-40
8.164938e-46
3.68945e-51
1.191395e-56
2.493083e-62
3.585618e-68
4.777104e-74
1.398965e-78
6.953679e-85
3.180032e-91
3.555146e-97
0.04000736
2.303e-07
7.402351e-13
1.731948e-18
7.944985e-24
0
1.017932e-35
1.167717e-40
9.080463e-46
6.016492e-51
2.659197e-56
7.138218e-62
1.348808e-67
2.376192e-73
9.483166e-78
0
1.792952e-90
2.149145e-96
0.04241684
2.909851e-07
1.076273e-12
2.822399e-18
1.488249e-23
6.328784e-29
0
1.250756e-40
9.347647e-46
9.846581e-51
6.059178e-56
1.994239e-61
5.155771e-67
1.26148e-72
2.765259e-77
0
1.089044e-89
1.426432e-95
0.04492589
3.666687e-07
1.573221e-12
4.586677e-18
2.79426e-23
1.293045e-28
5.765431e-34
0
8.321633e-46
9.498e-51
1.166405e-55
5.08562e-61
1.822895e-66
6.60862e-72
2.160894e-76
5.391637e-83
6.81494e-89
9.075486e-95
0.04759811
4.595812e-07
2.28907e-12
7.524001e-18
5.168079e-23
2.615556e-28
1.274759e-33
8.68428e-39
0
9.931349e-51
1.212411e-55
1.095129e-60
5.681602e-66
3.396191e-71
3.285023e-75
5.844693e-82
4.070008e-88
6.014124e-94
0.05043512
5.798271e-07
3.323677e-12
1.230428e-17
9.481335e-23
5.450597e-28
2.809353e-33
1.995688e-38
7.339556e-44
0
8.507271e-56
2.221294e-60
1.25814e-65
1.669594e-70
4.166758e-74
5.226385e-81
2.323747e-87
5.491931e-93
0.0535085
7.244995e-07
4.801634e-12
1.991701e-17
1.732939e-22
1.103728e-27
6.157338e-33
4.739584e-38
1.730761e-43
8.021882e-49
0
1.793091e-60
1.272391e-65
1.064918e-69
3.551332e-73
3.446018e-80
1.42908e-86
8.569461e-92
0.05672672
9.049145e-07
6.993668e-12
3.232904e-17
3.180474e-22
2.072478e-27
1.345984e-32
1.140766e-37
4.251769e-43
2.15455e-48
1.317869e-53
0
5.163609e-66
1.297397e-68
1.760224e-72
6.16979e-80
1.132865e-85
1.757108e-90
0.06020218
1.133077e-06
1.015544e-11
5.297842e-17
5.960388e-22
4.228863e-27
3.044118e-32
2.793302e-37
1.043725e-42
6.142715e-48
4.099196e-53
2.597064e-58
0
1.43689e-67
7.735002e-74
2.481063e-79
1.030882e-84
3.496437e-89
0.06393554
1.409645e-06
1.464981e-11
8.840128e-17
1.158045e-21
9.777457e-27
8.855804e-32
8.212989e-37
2.72904e-42
1.763038e-47
1.394674e-52
8.368111e-58
6.404476e-63
1.06739e-66
6.634632e-74
5.428822e-79
1.072023e-83
6.338672e-88
0.06789614
1.741881e-06
2.050531e-11
1.459266e-16
2.330984e-21
2.20381e-26
1.687529e-31
1.59801e-36
9.832382e-42
4.831964e-47
4.817318e-52
2.946586e-57
2.810641e-62
6.27058e-66
0
3.986068e-79
1.594202e-82
1.05421e-86
0.07221622
2.107029e-06
2.536788e-11
1.638729e-16
5.356562e-21
3.493898e-26
2.710707e-31
2.324296e-36
7.9485e-41
1.23553e-46
1.340898e-51
9.380092e-57
1.745398e-61
1.321682e-65
0
2.320615e-77
4.798524e-81
9.474821e-86
0.07687109
2.428703e-06
2.796382e-11
1.439776e-16
1.079236e-20
3.911718e-26
3.962776e-31
3.82717e-36
2.793873e-40
2.500909e-46
2.431935e-51
2.446284e-56
1.443993e-60
7.895761e-65
9.012646e-71
5.759671e-75
4.71751e-79
1.279645e-84
0.08183959
2.63994e-06
3.222958e-11
1.997158e-16
1.565413e-21
6.039739e-26
6.138025e-31
7.544589e-36
1.180274e-40
8.497618e-46
8.9071e-51
1.053236e-55
1.745205e-59
1.020186e-63
4.205793e-69
9.59657e-73
9.923053e-77
2.171442e-83
0.08738575
4.226443e-06
7.72074e-11
2.036529e-16
7.9756e-21
1.818199e-25
1.353835e-30
1.333561e-35
8.236763e-41
5.575153e-45
4.740908e-50
7.309676e-55
2.288405e-58
4.026248e-63
6.573864e-67
1.782733e-70
2.02076e-74
0
0.09427317
8.126131e-06
1.559716e-10
6.652568e-16
1.307914e-20
3.059321e-25
3.462868e-30
1.497735e-35
4.615642e-41
2.677087e-44
1.878403e-49
7.854354e-54
5.29811e-57
7.190049e-61
1.005629e-64
3.056634e-68
3.548464e-72
9.412016e-78
0.1129743
7.300693e-06
1.32862e-10
1.926943e-15
2.243065e-20
6.235469e-25
8.55779e-30
0
0
4.54484e-44
9.117757e-49
4.115162e-52
4.731289e-55
7.964903e-59
1.35798e-62
4.662983e-66
1.476131e-70
1.816301e-75
0.1264879
7.647198e-06
1.104253e-10
3.798879e-15
9.73424e-20
9.302382e-25
1.32105e-29
0
5.106932e-39
9.815432e-44
5.076067e-47
4.501138e-50
5.622711e-53
7.924104e-57
1.632487e-60
6.251913e-64
2.723563e-68
2.128397e-73
0.1513908
5.03613e-06
1.532201e-10
7.267179e-15
1.299012e-19
9.213489e-25
1.387812e-29
1.297681e-34
7.445499e-39
3.691384e-42
5.150867e-45
4.784244e-48
7.218339e-51
7.222723e-55
1.861593e-58
7.067727e-62
2.138491e-66
2.35283e-71
0.2563254
1.638426e-06
2.36474e-10
8.249002e-15
2.98886e-20
1.906787e-25
9.590538e-30
3.351865e-34
1.863127e-37
2.725107e-40
4.82051e-43
4.387255e-46
7.766178e-49
5.331227e-53
2.220273e-56
6.323369e-60
2.533614e-64
2.33535e-69
0.3884097
8.752389e-05
1.047708e-09
4.879342e-15
7.553219e-21
7.300392e-25
6.241897e-29
7.197888e-33
1.062873e-35
1.929754e-38
3.945089e-41
3.425402e-44
5.606906e-47
3.000792e-51
2.587902e-54
5.798037e-58
2.573796e-62
2.002533e-67
0.4940957
0.0003556502
2.67834e-09
0
8.695599e-21
3.118836e-24
5.087707e-28
2.799424e-31
6.160984e-34
1.230707e-36
2.788218e-39
1.954093e-42
3.310283e-45
1.269191e-49
1.228501e-52
2.985262e-56
2.442975e-60
1.444736e-65
0.5319448
0.0004665148
2.25683e-10
1.46472e-16
1.798234e-20
1.151729e-23
9.65743e-27
1.318865e-29
3.252351e-32
6.944755e-35
1.689389e-37
9.095071e-41
1.793657e-43
4.45792e-48
2.423602e-51
1.314818e-54
1.888658e-58
5.295354e-64
0.5362728
0.0006232945
0
7.938344e-17
2.14329e-19
2.401028e-22
3.702049e-25
6.022711e-28
1.490103e-30
3.412779e-33
8.444803e-36
4.537687e-39
8.344779e-42
1.53577e-46
1.123791e-49
4.909745e-53
7.490511e-57
1.2039e-62
0.5375095
0.0003412577
0
1.578263e-15
6.051885e-18
8.7431e-21
1.471818e-23
2.487903e-26
5.74651e-29
1.427705e-31
3.350835e-34
1.250391e-37
3.339053e-40
7.598336e-45
2.951737e-48
1.443106e-51
1.556109e-55
1.822998e-61
0.5399807
0.00112639
0
3.816775e-14
1.811828e-16
3.497897e-19
5.320397e-22
9.037047e-25
1.820955e-27
4.862313e-30
6.807301e-33
2.80927e-36
1.159101e-38
4.966949e-43
3.910596e-47
1.376443e-50
1.309246e-54
6.52737e-61
0.5416954
0.0006932063
1.181274e-09
9.257941e-13
4.99544e-15
1.257443e-17
1.655078e-20
2.819564e-23
4.675821e-26
1.231711e-28
1.222764e-31
5.835106e-35
3.512768e-37
6.331557e-42
1.358393e-46
0
3.209104e-54
0
0.5421261
0.0007196358
1.423021e-08
2.356654e-11
1.256969e-13
3.87163e-16
4.230844e-19
7.375119e-22
6.747382e-25
1.746465e-27
1.635401e-30
1.087854e-33
8.969589e-36
8.788785e-41
0
2.467465e-49
0
0
0.5480428
0.0004770852
4.973036e-07
7.678962e-10
2.875914e-12
8.223133e-15
8.411343e-18
1.573301e-20
8.088596e-24
0
1.292797e-29
1.943924e-32
5.781131e-35
6.284689e-40
3.140047e-45
0
1.586151e-53
0
0.5528008
0.01314419
7.922825e-06
2.514905e-08
6.680628e-11
8.869275e-14
1.207393e-16
2.569893e-19
1.278207e-23
8.313822e-26
3.965969e-29
1.137502e-31
7.172608e-35
9.630062e-40
0
3.710307e-48
0
7.064532e-57
0.5596613
0.05532384
0.000168637
5.203015e-07
1.483666e-09
9.727306e-13
7.204231e-16
1.622873e-18
4.858875e-22
3.783047e-26
0
1.056439e-31
8.822915e-36
2.691434e-39
5.566544e-44
9.960637e-50
3.340481e-52
1.735082e-56
0.5652295
0.1714694
0.0007203014
5.792129e-06
1.133775e-21
0
0
0
0
9.792666e-42
8.47903e-45
6.066117e-48
5.792853e-54
0
0.5644409
0.5265485
7.660057e-29
1.446063e-33
3.752723e-38
2.697676e-38
2.627652e-42
3.924213e-47
0
2.684199e-58
0.5608061
0
1.834307e-35
3.595553e-36
4.021598e-40
8.584084e-45
0
6.217791e-54
1.290969e-33
5.0023e-34
4.357348e-38
1.369777e-42
0
2.144899e-51
4.156482e-32
3.317012e-36
1.997134e-40
3.886144e-45
5.890874e-49
2.193705e-30
1.721189e-34
1.39729e-38
3.072501e-42
1.364922e-46
3.434715e-29
6.537912e-33
2.301161e-36
3.804533e-40
2.293939e-44
1.153284e-28
2.057596e-31
1.489371e-34
4.033542e-38
3.530026e-42
0
2.72224e-30
3.739518e-33
1.649752e-36
2.218249e-40
1.693894e-28
3.256596e-30
5.026751e-33
2.604837e-36
9.155103e-40
0
0
3.636304e-30
9.536572e-33
4.903251e-36
1.412891e-39
0.5620302
0
5.60957e-28
2.889851e-30
6.563042e-33
7.232672e-36
2.428511e-39
0.5608675
0.5375509
0
2.051044e-24
1.696453e-26
4.682522e-29
4.573139e-32
2.376028e-35
8.612917e-39
0.5602977
0.2705045
0.001462723
0
8.260644e-20
2.200868e-21
1.270105e-23
3.595663e-26
8.788591e-29
4.034862e-32
3.961818e-35
8.836775e-39
0.5579761
0.1101949
0.0004826771
7.216746e-06
1.585475e-07
3.54392e-09
2.962016e-11
1.547129e-13
1.246825e-15
1.487035e-17
1.750614e-19
8.64558e-22
2.848046e-24
3.396259e-27
9.221454e-31
2.432362e-33
3.570174e-37
2.384177e-41
0.5529589
0.03130037
2.981294e-05
1.97344e-07
2.524551e-09
3.192345e-11
2.330739e-13
1.571596e-15
9.614057e-18
5.890765e-20
3.933112e-22
8.227697e-25
1.339723e-27
3.274309e-30
1.802437e-33
1.861732e-36
0
9.803167e-45
0.5510799
0.01014768
2.804559e-06
2.145904e-08
8.077915e-11
3.757617e-13
1.958976e-15
1.267942e-17
7.320015e-20
1.790915e-22
8.539847e-25
2.678185e-27
2.882148e-30
9.897718e-34
1.87769e-36
6.967919e-40
1.566623e-42
1.00967e-46
0.5476763
0.00213457
9.967256e-07
1.411986e-09
4.813246e-12
2.409666e-14
7.898816e-17
2.445544e-19
7.048617e-22
1.97367e-24
1.850729e-27
4.227613e-30
3.517443e-33
7.486233e-36
4.887818e-39
6.934657e-42
6.490024e-46
7.966124e-49
0.5414311
0.001858871
1.362367e-06
3.269542e-09
9.581617e-12
2.075807e-14
5.14543e-17
1.266107e-19
2.87113e-22
5.944767e-25
7.036356e-28
8.863274e-31
0
1.540608e-37
1.790729e-40
6.823725e-44
4.141606e-47
0
0.5409332
0.001031069
5.457882e-07
9.292477e-10
2.321617e-12
6.00427e-15
1.549872e-17
3.414997e-20
7.654592e-23
1.440027e-25
2.557853e-28
3.535771e-31
4.174779e-34
1.335066e-38
2.888767e-41
2.101745e-44
2.353264e-48
1.306535e-51
0.5409845
0.001355066
1.0355e-06
1.408064e-09
3.437144e-12
7.686113e-15
1.462806e-17
2.66302e-20
5.033977e-23
8.034927e-26
1.148232e-28
2.160353e-32
5.111616e-35
5.634304e-41
1.602044e-41
1.206671e-44
6.458102e-48
4.7334e-52
0.5359553
0.002338916
3.728833e-06
9.700873e-09