/*--------------------------------*- C++ -*----------------------------------*\
| =========                 |                                                 |
| \\      /  F ield         | OpenFOAM: The Open Source CFD Toolbox           |
|  \\    /   O peration     | Version:  2206                                  |
|   \\  /    A nd           | Website:  www.openfoam.com                      |
|    \\/     M anipulation  |                                                 |
\*---------------------------------------------------------------------------*/
FoamFile
{
    version     2.0;
    format      ascii;
    arch        "LSB;label=32;scalar=64";
    class       volScalarField;
    location    "2.4";
    object      alpha.b;
}
// * * * * * * * * * * * * * * * * * * * * * * * * * * * * * * * * * * * * * //

dimensions      [0 0 0 0 0 0 0];

internalField   nonuniform List<scalar> 
13078
(
0.490394
0.4422533
0.4203114
0.4191684
0.4195569
0.4202591
0.4210964
0.436241
0.4208062
0.4186284
0.4189125
0.4195096
0.4202295
0.4210723
0.4183326
0.4178666
0.4181775
0.4187651
0.4194328
0.4201793
0.4210348
0.4166532
0.4173794
0.4180086
0.4186547
0.4193548
0.4201243
0.4209921
0.4164742
0.417244
0.4179114
0.418584
0.4192888
0.4200713
0.4209494
0.416516
0.4172204
0.417865
0.4185367
0.4192504
0.4200273
0.4209092
0.4165698
0.4172274
0.417846
0.418509
0.4192231
0.4200041
0.4208753
0.4166102
0.417244
0.4178404
0.4184955
0.4192075
0.4199875
0.4208598
0.4166395
0.4172606
0.4178444
0.4184917
0.4191995
0.419977
0.4208484
0.4166609
0.417275
0.4178509
0.418492
0.4191958
0.4199707
0.4208406
0.416677
0.4172869
0.4178577
0.4184942
0.4191947
0.419967
0.4208351
0.41669
0.4172966
0.4178642
0.4184974
0.4191951
0.4199649
0.4208312
0.4167005
0.4173048
0.4178701
0.4185008
0.4191962
0.419964
0.4208285
0.4167096
0.417312
0.4178755
0.4185041
0.4191976
0.4199636
0.4208263
0.4167176
0.4173184
0.4178803
0.4185034
0.4191936
0.4199628
0.4208245
0.4167249
0.4173242
0.4178846
0.4185019
0.4191915
0.4199624
0.4208228
0.416732
0.4173299
0.4178891
0.4185045
0.4191928
0.4199624
0.4208211
0.416739
0.4173355
0.4178935
0.4185073
0.4191942
0.4199623
0.4208194
0.4167462
0.4173412
0.417898
0.4185103
0.4191955
0.4199619
0.4208178
0.4167537
0.4173471
0.4179025
0.4185128
0.4191908
0.4199534
0.420815
0.4167617
0.4173534
0.4179073
0.4185156
0.4191856
0.4199477
0.4208122
0.4167705
0.4173602
0.4179126
0.4185191
0.4191862
0.4199469
0.42081
0.4167801
0.4173676
0.4179184
0.4185228
0.4191878
0.4199459
0.4208067
0.4167908
0.417376
0.4179249
0.4185269
0.4191887
0.4199366
0.4207921
0.4168028
0.4173854
0.4179322
0.4185316
0.4191901
0.4199264
0.4207814
0.4168165
0.4173961
0.4179403
0.4185368
0.4191924
0.4199238
0.4207765
0.4168322
0.4174083
0.4179497
0.4185429
0.4191951
0.4199227
0.4207711
0.4168499
0.4174221
0.4179603
0.4185499
0.4191981
0.419921
0.4207538
0.4168703
0.417438
0.4179724
0.418558
0.4192019
0.4199201
0.4207356
0.4168914
0.4174539
0.4179855
0.4185671
0.4192069
0.419921
0.4207288
0.4169161
0.4174727
0.4180005
0.4185775
0.419213
0.419923
0.4207253
0.4169439
0.41749
0.4180113
0.4185881
0.4192205
0.4199268
0.4207251
0.4169734
0.4175086
0.4180203
0.4185907
0.4192257
0.41993
0.4207266
0.4170028
0.4175264
0.4180264
0.4185941
0.4192245
0.4199234
0.4207188
0.4170281
0.4175337
0.4180178
0.4185619
0.4191774
0.4198797
0.4206803
0.4170387
0.4175147
0.4179653
0.418469
0.4190553
0.4197541
0.4205829
0.4170209
0.4174344
0.4178226
0.4182812
0.4188405
0.4195818
0.4204763
0.4169463
0.4172497
0.4175727
0.4180171
0.4185898
0.4193845
0.4204137
0.4167768
0.4169683
0.4172617
0.4177238
0.4183516
0.419187
0.4204198
0.4164878
0.4166313
0.4169428
0.4174368
0.4181261
0.419033
0.4203589
0.4161069
0.4162935
0.4166055
0.4171723
0.4178951
0.418849
0.4201548
0.4156564
0.415993
0.416301
0.416867
0.4176544
0.4186281
0.4198469
0.4151927
0.415722
0.4160536
0.4165907
0.4173313
0.4183901
0.4193731
0.4147594
0.4155598
0.415833
0.4164016
0.4171543
0.4180561
0.4189327
0.4144803
0.4154763
0.415737
0.4163626
0.4171201
0.4177245
0.4183397
0.4143857
0.4154542
0.4157509
0.4164724
0.4170933
0.4175586
0.4179757
0.4143905
0.4154755
0.4159197
0.4165925
0.4170798
0.4174828
0.4179979
0.4143775
0.4155056
0.4160146
0.4166484
0.4169956
0.4174393
0.4181078
0.4143853
0.4155396
0.4160155
0.4166412
0.4169857
0.417469
0.4182608
0.4144279
0.4155419
0.4159922
0.4166024
0.416961
0.4176163
0.4185659
0.4145212
0.4154829
0.4159067
0.4166078
0.4170549
0.4179204
0.4190993
0.4147154
0.415512
0.4158552
0.4165353
0.4171352
0.4182605
0.419697
0.4149834
0.4156544
0.4160842
0.4167309
0.4174693
0.4187473
0.4203731
0.4152607
0.4158484
0.4163082
0.4170514
0.4179541
0.4194139
0.4209247
0.4155321
0.4160626
0.4165719
0.4173978
0.4184183
0.4199179
0.4214244
0.4158153
0.4163113
0.416862
0.4177205
0.4187674
0.4202408
0.4217945
0.4160434
0.4166246
0.4172052
0.418038
0.4190114
0.4204238
0.4219489
0.4161336
0.4168419
0.4174181
0.4181892
0.4190553
0.4204114
0.4218794
0.4161998
0.4170315
0.417597
0.4183109
0.4190743
0.4203594
0.4217669
0.4162391
0.4172206
0.417797
0.4184642
0.4191425
0.420292
0.4217419
0.416209
0.4173404
0.417927
0.4187049
0.4193151
0.4204126
0.4218637
0.4161313
0.4173918
0.4180094
0.4188454
0.419412
0.4204439
0.4218709
0.416065
0.4173901
0.4181131
0.4189959
0.4195503
0.4204359
0.4219038
0.4160157
0.4172933
0.418047
0.4190266
0.4196405
0.420416
0.4218242
0.415947
0.4170764
0.4178396
0.4189115
0.4196969
0.4203829
0.4216359
0.4158225
0.4168457
0.4175343
0.4186826
0.4197925
0.4206057
0.4215393
0.4156914
0.4166642
0.417261
0.4184108
0.4197458
0.4207781
0.4215455
0.4156963
0.4165822
0.4171695
0.418156
0.4195258
0.4208951
0.4218405
0.4158864
0.4165754
0.417161
0.4180177
0.4192471
0.4208128
0.4222119
0.4161761
0.4166547
0.4172098
0.4180283
0.4190905
0.4205508
0.4222442
0.4164748
0.4168096
0.4172991
0.4180552
0.419033
0.4202866
0.4219435
0.4167403
0.4169913
0.4174181
0.4180854
0.4189608
0.4200825
0.4214749
0.4169348
0.4171988
0.4175829
0.4181445
0.418899
0.4198532
0.4211921
0.4170475
0.417389
0.4177635
0.4182712
0.4189169
0.4197374
0.4208885
0.4170866
0.4175172
0.417929
0.4184205
0.4190113
0.4197682
0.4207181
0.4170851
0.4175704
0.4180319
0.4185456
0.4191422
0.4198603
0.4207045
0.4170633
0.4175762
0.4180666
0.4186085
0.4192291
0.4199361
0.4207446
0.4170297
0.4175597
0.4180629
0.4186261
0.4192577
0.4199686
0.4207666
0.4169951
0.4175346
0.4180467
0.4186237
0.4192618
0.4199668
0.4207634
0.4169619
0.4175089
0.4180299
0.4186081
0.4192479
0.4199555
0.4207534
0.4169307
0.4174868
0.4180158
0.4185984
0.4192351
0.4199445
0.4207454
0.4169032
0.4174674
0.4180017
0.4185838
0.4192234
0.4199366
0.4207418
0.4168797
0.4174481
0.4179847
0.4185707
0.4192141
0.4199313
0.4207418
0.4168599
0.4174321
0.4179707
0.4185598
0.4192068
0.4199276
0.420745
0.416841
0.4174165
0.417958
0.4185504
0.4192012
0.4199263
0.4207611
0.4168245
0.4174032
0.4179471
0.4185427
0.4191969
0.4199262
0.4207759
0.41681
0.4173915
0.4179377
0.4185362
0.4191933
0.4199261
0.4207799
0.4167974
0.4173815
0.4179298
0.4185307
0.4191905
0.4199277
0.4207835
0.4167862
0.4173727
0.4179228
0.4185258
0.4191887
0.4199377
0.4207938
0.4167763
0.4173649
0.4179166
0.4185218
0.4191875
0.4199462
0.4208077
0.4167675
0.4173579
0.417911
0.4185182
0.4191858
0.419947
0.4208105
0.4167595
0.4173516
0.417906
0.4185148
0.4191851
0.4199476
0.4208124
0.4167521
0.4173458
0.4179016
0.4185123
0.4191908
0.4199536
0.4208151
0.4167452
0.4173404
0.4178975
0.4185101
0.4191954
0.4199619
0.4208179
0.4167388
0.4173353
0.4178935
0.4185074
0.4191942
0.4199624
0.4208194
0.4167325
0.4173304
0.4178896
0.4185048
0.4191929
0.4199623
0.4208208
0.4167262
0.4173254
0.4178855
0.4185025
0.4191917
0.4199623
0.4208224
0.4167198
0.4173203
0.4178818
0.4185045
0.4191942
0.4199627
0.4208239
0.4167131
0.417315
0.4178778
0.4185055
0.4191981
0.4199634
0.4208255
0.4167057
0.417309
0.4178732
0.4185025
0.4191967
0.4199634
0.4208271
0.4166972
0.4173021
0.417868
0.4184992
0.4191952
0.4199637
0.420829
0.416687
0.4172941
0.4178622
0.418496
0.4191941
0.4199646
0.4208316
0.4166745
0.4172847
0.417856
0.4184929
0.4191938
0.4199665
0.4208353
0.4166588
0.4172731
0.4178493
0.4184907
0.4191947
0.41997
0.4208405
0.416638
0.4172589
0.4178432
0.4184903
0.4191982
0.4199763
0.4208485
0.4166094
0.4172426
0.417842
0.4184959
0.4192063
0.4199868
0.4208596
0.4165696
0.417226
0.4178461
0.4185096
0.4192223
0.4200024
0.4208884
0.4165166
0.4172177
0.4178617
0.4185342
0.4192464
0.4200375
0.4209234
0.4164721
0.4172393
0.4179068
0.4185763
0.4192959
0.4200822
0.4209627
0.416637
0.4173683
0.4179921
0.4186579
0.4193616
0.4201336
0.4210055
0.4181171
0.4177971
0.4181768
0.4187663
0.4194369
0.4201884
0.4210486
0.4341829
0.420054
0.4184579
0.4189014
0.4195193
0.4202432
0.4210894
0.4220944
0.4233475
0.4250187
0.4266071
0.4294319
0.4338704
0.4440916
0.4220699
0.4233178
0.4249821
0.4265645
0.4293798
0.4337987
0.4436719
0.4220372
0.4232836
0.4249387
0.427114
0.4293297
0.4337298
0.4434536
0.4220007
0.4232476
0.4249019
0.4264663
0.4292774
0.4336601
0.4432565
0.4219636
0.4232101
0.4248595
0.4264158
0.4292239
0.4335904
0.4431204
0.4219273
0.4231723
0.4248165
0.4263663
0.429171
0.4335211
0.4429943
0.4218931
0.4231357
0.4247744
0.4263195
0.4291549
0.4334522
0.4428745
0.4218636
0.4231005
0.4247334
0.4262739
0.4291398
0.4333838
0.4427659
0.421852
0.4230692
0.4246948
0.4262285
0.4290969
0.4333224
0.4426592
0.4218432
0.4230586
0.4246597
0.4261838
0.4290551
0.4332609
0.4425591
0.4218365
0.4230504
0.4246489
0.4261412
0.4290136
0.4331994
0.4424637
0.4218311
0.4230433
0.4246403
0.4261311
0.4289719
0.4331377
0.442372
0.4218267
0.423037
0.4246321
0.4261219
0.4289639
0.4330743
0.4422849
0.4218228
0.4230311
0.424624
0.4261124
0.428955
0.4330619
0.4422163
0.4218192
0.4230252
0.4246157
0.4261026
0.4289454
0.4330466
0.4422511
0.4218157
0.4230192
0.4246074
0.4260925
0.428935
0.4330298
0.4422978
0.4218122
0.4230131
0.4245988
0.4260814
0.4289184
0.4330121
0.442333
0.4218086
0.423007
0.4245896
0.4260655
0.4288011
0.4329927
0.4423829
0.4218049
0.4230009
0.4245801
0.4260532
0.4287797
0.4329727
0.4424264
0.4218008
0.4229943
0.42457
0.4260401
0.4287636
0.4329513
0.4424756
0.4217966
0.4229873
0.4245595
0.4260262
0.4287466
0.4329287
0.4425425
0.421792
0.42298
0.4245488
0.4260113
0.4287287
0.4329049
0.4425961
0.4217872
0.4229719
0.4245369
0.4259979
0.4287048
0.43288
0.4426519
0.4217802
0.4229629
0.4245219
0.4265446
0.4285788
0.4328416
0.4427053
0.4217731
0.4229538
0.4245099
0.4259661
0.428521
0.4328096
0.442756
0.4217664
0.4229436
0.4244948
0.4259411
0.4284934
0.4327787
0.4428074
0.4217566
0.4229308
0.4244767
0.4259176
0.4284647
0.4327427
0.4428635
0.4217306
0.4229155
0.4244595
0.4258934
0.4284266
0.4324974
0.4429109
0.4217151
0.4225726
0.4240251
0.4258819
0.428389
0.4323983
0.4429413
0.4217028
0.422558
0.4239999
0.4258517
0.4283503
0.4323537
0.4429635
0.4216685
0.422517
0.4239784
0.4258204
0.4283083
0.4321672
0.4429548
0.4216513
0.4224827
0.4239579
0.4257872
0.4282665
0.4319681
0.4428892
0.4216488
0.4224241
0.4239337
0.4257591
0.4282295
0.4319114
0.4426711
0.4216472
0.422412
0.4239018
0.4257516
0.4282133
0.4318206
0.4409101
0.4216337
0.4224109
0.4238897
0.425791
0.4282613
0.4316294
0.439614
0.4216198
0.4224215
0.423912
0.4259914
0.4284656
0.4312835
0.4357775
0.4216728
0.4225375
0.4242567
0.4265075
0.428857
0.4313201
0.4352753
0.4218469
0.4228554
0.4247707
0.4268554
0.4294342
0.4326555
0.4353573
0.4220975
0.4232944
0.4252894
0.4273743
0.4305434
0.4335944
0.4358722
0.4221857
0.4236512
0.4256015
0.4279756
0.4307382
0.4335956
0.4366889
0.421987
0.4235917
0.4253186
0.4282976
0.4310252
0.4338098
0.4389939
0.4211854
0.42283
0.4252035
0.4288177
0.4316093
0.4340838
0.4393643
0.4204604
0.4221778
0.4250981
0.429117
0.4319494
0.4342114
0.4400832
0.4198179
0.421733
0.4250443
0.4292226
0.4316758
0.4344128
0.4387085
0.4193889
0.4209271
0.424396
0.4290189
0.4318505
0.4339313
0.4378819
0.4189165
0.4203385
0.4237444
0.4287688
0.4317623
0.4331488
0.4380933
0.4187889
0.4201116
0.42382
0.4283445
0.4308242
0.4333041
0.4363584
0.4191033
0.4203825
0.4238456
0.4280876
0.4308857
0.4319604
0.4321258
0.4195598
0.4207533
0.4243554
0.4287589
0.4311126
0.432079
0.4310152
0.4200446
0.4213988
0.4253078
0.4292797
0.4317731
0.4316857
0.4324168
0.4206654
0.4216238
0.4263222
0.4299921
0.4312759
0.4321028
0.4342386
0.4213962
0.4223613
0.427021
0.4301449
0.4309966
0.4319758
0.4344231
0.4221831
0.4233015
0.4278419
0.4294719
0.4301371
0.4314653
0.433413
0.4230172
0.424594
0.4290529
0.4299368
0.4301718
0.4307677
0.4324593
0.4238155
0.425931
0.4303921
0.4308333
0.4309385
0.4312792
0.4311942
0.4242544
0.4269625
0.4308315
0.431627
0.4317053
0.4296874
0.42444
0.4275734
0.4310978
0.4316036
0.4318347
0.4301494
0.4243771
0.4275355
0.4307027
0.4305433
0.431618
0.4309969
0.4241345
0.4267588
0.4296587
0.4301977
0.4308738
0.4306609
0.4298945
0.4238617
0.4260277
0.429996
0.4309812
0.4311476
0.4319906
0.4316685
0.4241171
0.4262989
0.4305349
0.4320059
0.4316069
0.4320632
0.4307153
0.424071
0.4264648
0.4301916
0.4317578
0.4308906
0.4308675
0.4307412
0.4241983
0.4268019
0.4302526
0.430635
0.4305965
0.4309823
0.4329152
0.4240965
0.4265447
0.4300628
0.43035
0.4306615
0.4311101
0.4317834
0.4238264
0.4260431
0.4301362
0.4312943
0.4312302
0.4299842
0.432098
0.4234771
0.4256182
0.4297761
0.4319945
0.4318373
0.4304121
0.4340457
0.4232627
0.4250549
0.4294796
0.4319661
0.4321047
0.432381
0.4353287
0.4233312
0.4250357
0.4292524
0.4317149
0.4322635
0.4335978
0.4373024
0.4236003
0.4249591
0.4287957
0.4316578
0.4320785
0.4343082
0.4404531
0.4240465
0.4251519
0.4280966
0.4311964
0.4325617
0.4342289
0.4409281
0.4241589
0.4256413
0.4274054
0.4308552
0.4324705
0.4338479
0.4389818
0.4237148
0.4257734
0.4272336
0.4301189
0.4321804
0.4331301
0.4373047
0.4229973
0.4249073
0.4266811
0.4292912
0.43138
0.4331639
0.4366689
0.4223512
0.4239908
0.4255154
0.427776
0.4307728
0.4332598
0.4355626
0.4219202
0.4231942
0.4246343
0.4265042
0.4292198
0.4321163
0.4346455
0.4217433
0.4227329
0.4240967
0.4261001
0.4284802
0.4312514
0.4364449
0.4217014
0.4225698
0.4238753
0.4258275
0.428261
0.4313143
0.4378286
0.4216937
0.4225247
0.4238514
0.4257675
0.4281964
0.4316895
0.4405951
0.4216844
0.4225055
0.4239068
0.4257675
0.4282023
0.4318271
0.4416423
0.4216749
0.4224956
0.4239519
0.4257833
0.4282348
0.4318893
0.4422808
0.4216731
0.4225285
0.4239744
0.4258081
0.4282753
0.4319566
0.4431172
0.4216876
0.4225607
0.4239936
0.4258344
0.428316
0.4320406
0.4431022
0.4217177
0.4225996
0.4240093
0.4258593
0.4283535
0.4323268
0.4430572
0.4217261
0.422612
0.4240265
0.4258816
0.4283874
0.4323898
0.4430026
0.4217391
0.4229246
0.4244691
0.4259254
0.4284195
0.4324313
0.4429471
0.4217626
0.4229372
0.4244835
0.4259415
0.4284548
0.4326534
0.4428862
0.4217706
0.4229481
0.424499
0.4259591
0.4284848
0.4327652
0.4428168
0.421776
0.422957
0.4245126
0.4259757
0.428511
0.4327955
0.4427548
0.4217823
0.4229655
0.4245255
0.4259915
0.4285393
0.4328237
0.4426882
0.4217885
0.4229733
0.4245374
0.4260069
0.4286677
0.4328605
0.4426305
0.4217927
0.4229806
0.4245488
0.4260214
0.4287194
0.4328897
0.4425697
0.4217969
0.4229877
0.4245596
0.4260348
0.4287369
0.4329132
0.4425074
0.4218009
0.4229943
0.4245697
0.4260478
0.4287538
0.4329356
0.4424502
0.4218048
0.4230005
0.4245794
0.4260601
0.4287698
0.4329572
0.4423941
0.4218083
0.4230065
0.4245885
0.4260719
0.4287848
0.4329775
0.4423453
0.4218117
0.4230124
0.4245974
0.4260855
0.4288507
0.432997
0.4423014
0.421815
0.4230182
0.4246058
0.4260983
0.4289266
0.4330155
0.4422585
0.4218183
0.4230237
0.4246138
0.4261087
0.4289371
0.4330328
0.4422118
0.4218214
0.4230292
0.4246216
0.426119
0.4289471
0.4330491
0.4422095
0.4218247
0.4230345
0.4246292
0.4261289
0.4289561
0.433064
0.4422168
0.4218283
0.4230401
0.4246368
0.4261387
0.4289649
0.4331017
0.4423079
0.4218324
0.4230461
0.4246445
0.4261488
0.428989
0.4331638
0.4424043
0.4218375
0.423053
0.4246545
0.4261751
0.4290302
0.4332257
0.4425059
0.4218442
0.4230619
0.4246884
0.4262198
0.4290716
0.4332874
0.442609
0.4218532
0.4230912
0.4247255
0.4262651
0.4291132
0.4333494
0.4427189
0.4218796
0.4231243
0.424765
0.4263115
0.4291536
0.4334144
0.4428321
0.4219106
0.4231591
0.424806
0.4263563
0.4291425
0.4334836
0.4429493
0.4219442
0.4231957
0.4248481
0.4264037
0.4291933
0.4335531
0.4430736
0.4219804
0.4232336
0.424891
0.4264509
0.4292463
0.4336229
0.4432087
0.4220185
0.423272
0.4249339
0.4264977
0.4292996
0.4336931
0.4433723
0.4220558
0.4233093
0.4249761
0.4265428
0.4293528
0.4337637
0.4435905
0.422091
0.4233458
0.4250175
0.4265861
0.4294058
0.4338351
0.4439262
0.9950802
1
1
1
1
1
1
1
1
1
1
1
1
1
1
1
1
1
0.9891306
1
1
1
1
1
1
1
1
1
1
1
1
1
1
1
1
1
0.9873339
1
1
1
1
1
1
1
1
1
1
1
1
1
1
1
1
1
0.9863088
1
1
1
1
1
1
1
1
1
1
1
1
1
1
1
1
1
0.9852913
1
1
1
1
1
1
1
1
1
1
1
1
1
1
1
1
1
0.9842895
1
1
1
1
1
1
1
1
1
1
1
1
1
1
1
1
1
0.9832698
1
1
1
1
1
1
1
1
1
1
1
1
1
1
1
1
1
0.9822576
1
1
1
1
1
1
1
1
1
1
1
1
1
1
1
1
1
0.9812532
1
1
1
1
1
1
1
1
1
1
1
1
1
1
1
1
1
0.9802072
1
1
1
1
1
1
1
1
1
1
1
1
1
1
1
1
1
0.9791525
1
1
1
1
1
1
1
1
1
1
1
1
1
1
1
1
1
0.9781267
1
1
1
1
1
1
1
1
1
1
1
1
1
1
1
1
1
0.977071
1
1
1
1
1
1
1
1
1
1
1
1
1
1
1
1
1
0.9758579
1
1
1
1
1
1
1
1
1
1
1
1
1
1
1
1
1
0.9702994
1
1
1
1
1
1
1
1
1
1
1
1
1
1
1
1
1
0.9690555
1
1
1
1
1
1
1
1
1
1
1
1
1
1
1
1
1
0.967063
0.9999999
1
1
1
1
1
1
1
1
1
1
1
1
1
1
1
1
0.9648493
0.9999999
1
1
1
1
1
1
1
1
1
1
1
1
1
1
1
1
0.962458
0.9999998
1
1
1
1
1
1
1
1
1
1
1
1
1
1
1
1
0.9600544
0.9999998
1
1
1
1
1
1
1
1
1
1
1
1
1
1
1
1
0.957649
0.9999997
1
1
1
1
1
1
1
1
1
1
1
1
1
1
1
1
0.9551443
0.9999996
1
1
1
1
1
1
1
1
1
1
1
1
1
1
1
1
0.9524768
0.9999996
1
1
1
1
1
1
1
1
1
1
1
1
1
1
1
1
0.9496447
0.9999994
1
1
1
1
1
1
1
1
1
1
1
1
1
1
1
1
0.9465767
0.9999993
1
1
1
1
1
1
1
1
1
1
1
1
1
1
1
1
0.9433641
0.9999991
1
1
1
1
1
1
1
1
1
1
1
1
1
1
1
1
0.9398947
0.9999989
1
1
1
1
1
1
1
1
1
1
1
1
1
1
1
1
0.9361679
0.9999986
1
1
1
1
1
1
1
1
1
1
1
1
1
1
1
1
0.9322141
0.9999983
1
1
1
1
1
1
1
1
1
1
1
1
1
1
1
1
0.9279014
0.999998
1
1
1
1
1
1
1
1
1
1
1
1
1
1
1
1
0.9232544
0.9999977
1
1
1
1
1
1
1
1
1
1
1
1
1
1
1
1
0.9182943
0.9999975
1
1
1
1
1
1
1
1
1
1
1
1
1
1
1
1
0.9127564
0.9999959
1
1
1
1
1
1
1
1
1
1
1
1
1
1
1
1
0.9058715
0.9999922
1
1
1
1
1
1
1
1
1
1
1
1
1
1
1
1
0.8871822
0.999993
1
1
1
1
1
1
1
1
1
1
1
1
1
1
1
1
0.8736726
0.9999927
1
1
1
1
1
1
1
1
1
1
1
1
1
1
1
1
0.8487523
0.9999953
1
1
1
1
1
1
1
1
1
1
1
1
1
1
1
1
0.7437881
0.9999986
1
1
1
1
1
1
1
1
1
1
1
1
1
1
1
1
0.6115804
0.9999136
1
1
1
1
1
1
1
1
1
1
1
1
1
1
1
1
0.5056847
0.9996581
1
1
1
1
1
1
1
1
1
1
1
1
1
1
1
1
0.4679841
0.9995399
1
1
1
1
1
1
1
1
1
1
1
1
1
1
1
1
0.4636982
0.9993916
1
1
1
1
1
1
1
1
1
1
1
1
1
1
1
1
0.4624644
0.9996768
1
1
1
1
1
1
1
1
1
1
1
1
1
1
1
1
0.4599629
0.9988601
1
1
1
1
1
1
1
1
1
1
1
1
1
1
1
1
0.4581962
0.9992854
1
1
1
1
1
1
1
1
1
1
1
1
1
1
1
1
0.4577447
0.9992301
1
1
1
1
1
1
1
1
1
1
1
1
1
1
1
1
0.4518733
0.9994418
0.9999995
1
1
1
1
1
1
1
1
1
1
1
1
1
1
1
0.4472198
0.9867737
0.9999921
1
1
1
1
1
1
1
1
1
1
1
1
1
1
1
0.440436
0.9446775
0.9998302
0.9999995
1
1
1
1
1
1
1
1
1
1
1
1
1
1
0.4346841
0.8279367
0.999279
0.9999942
1
1
1
1
1
1
1
1
1
1
0.4354899
0.4730704
1
1
1
1
1
1
1
1
0.4391684
1
1
1
1
1
1
1
1
1
1
1
1
1
1
1
1
1
1
1
1
1
1
1
1
1
1
1
1
1
1
1
1
1
1
1
1
1
1
1
1
1
1
1
1
1
1
1
1
1
0.4381394
1
1
1
1
1
1
0.4392008
0.4624191
1
1
1
1
1
1
1
0.4395186
0.7299462
0.9984992
1
1
1
1
1
1
1
1
1
0.4418613
0.8900673
0.9995191
0.9999928
0.9999998
1
1
1
1
1
1
1
1
1
1
1
1
1
0.4470696
0.9689905
0.9999707
0.9999998
1
1
1
1
1
1
1
1
1
1
1
1
1
1
0.4487669
0.9901108
0.9999973
1
1
1
1
1
1
1
1
1
1
1
1
1
1
1
0.452146
0.997856
0.999999
1
1
1
1
1
1
1
1
1
1
1
1
1
1
1
0.4584359
0.9981632
0.9999986
1
1
1
1
1
1
1
1
1
1
1
1
1
1
1
0.4590067
0.9989734
0.9999995
1
1
1
1
1
1
1
1
1
1
1
1
1
1
1
0.4589435
0.9986545
0.999999
1
1
1
1
1
1
1
1
1
1
1
1
1
1
1
0.46401
0.9976743
0.9999962
1
1
1
1
1
1
1
1
1
1
1
1
1
1
1
0.4676342
0.9951521
0.9999888
1
1
1
1
1
1
1
1
1
1
1
1
1
1
1
0.4890412
0.9983337
0.9999988
1
1
1
1
1
1
1
1
1
1
1
1
1
1
1
0.5645478
0.9994341
0.9999996
1
1
1
1
1
1
1
1
1
1
1
1
1
1
1
0.6191604
0.9995763
0.9999999
1
1
1
1
1
1
1
1
1
1
1
1
1
1
1
0.8472593
0.9999658
1
1
1
1
1
1
1
1
1
1
1
1
1
1
1
1
0.864829
0.9999786
1
1
1
1
1
1
1
1
1
1
1
1
1
1
1
1
0.887593
0.9999945
1
1
1
1
1
1
1
1
1
1
1
1
1
1
1
1
0.9008483
0.9999959
1
1
1
1
1
1
1
1
1
1
1
1
1
1
1
1
0.9145111
0.9999945
1
1
1
1
1
1
1
1
1
1
1
1
1
1
1
1
0.9188794
0.9999949
1
1
1
1
1
1
1
1
1
1
1
1
1
1
1
1
0.9230682
0.9999956
1
1
1
1
1
1
1
1
1
1
1
1
1
1
1
1
0.9271504
0.9999964
1
1
1
1
1
1
1
1
1
1
1
1
1
1
1
1
0.9310333
0.999997
1
1
1
1
1
1
1
1
1
1
1
1
1
1
1
1
0.9346854
0.9999976
1
1
1
1
1
1
1
1
1
1
1
1
1
1
1
1
0.938139
0.999998
1
1
1
1
1
1
1
1
1
1
1
1
1
1
1
1
0.9414474
0.9999984
1
1
1
1
1
1
1
1
1
1
1
1
1
1
1
1
0.9446457
0.9999987
1
1
1
1
1
1
1
1
1
1
1
1
1
1
1
1
0.947476
0.9999989
1
1
1
1
1
1
1
1
1
1
1
1
1
1
1
1
0.9504071
0.9999991
1
1
1
1
1
1
1
1
1
1
1
1
1
1
1
1
0.9530371
0.9999992
1
1
1
1
1
1
1
1
1
1
1
1
1
1
1
1
0.9555609
0.9999994
1
1
1
1
1
1
1
1
1
1
1
1
1
1
1
1
0.9579124
0.9999995
1
1
1
1
1
1
1
1
1
1
1
1
1
1
1
1
0.9602678
0.9999995
1
1
1
1
1
1
1
1
1
1
1
1
1
1
1
1
0.9627568
0.9999996
1
1
1
1
1
1
1
1
1
1
1
1
1
1
1
1
0.9651101
0.9999997
1
1
1
1
1
1
1
1
1
1
1
1
1
1
1
1
0.9674213
0.9999999
1
1
1
1
1
1
1
1
1
1
1
1
1
1
1
1
0.9685853
0.9999994
1
1
1
1
1
1
1
1
1
1
1
1
1
1
1
1
0.9734026
0.9999996
1
1
1
1
1
1
1
1
1
1
1
1
1
1
1
1
0.976169
0.9999998
1
1
1
1
1
1
1
1
1
1
1
1
1
1
1
1
0.9773395
0.9999999
1
1
1
1
1
1
1
1
1
1
1
1
1
1
1
1
0.9784775
0.9999999
1
1
1
1
1
1
1
1
1
1
1
1
1
1
1
1
0.9795917
0.9999999
1
1
1
1
1
1
1
1
1
1
1
1
1
1
1
1
0.9806921
0.9999999
1
1
1
1
1
1
1
1
1
1
1
1
1
1
1
1
0.9817689
0.9999999
1
1
1
1
1
1
1
1
1
1
1
1
1
1
1
1
0.9827958
0.9999998
1
1
1
1
1
1
1
1
1
1
1
1
1
1
1
1
0.9838625
0.9999998
1
1
1
1
1
1
1
1
1
1
1
1
1
1
1
1
0.9848751
0.9999997
1
1
1
1
1
1
1
1
1
1
1
1
1
1
1
1
0.9858497
0.9999991
1
1
1
1
1
1
1
1
1
1
1
1
1
1
1
1
0.9868154
0.9999978
1
1
1
1
1
1
1
1
1
1
1
1
1
1
1
1
0.988023
0.9999988
1
1
1
1
1
1
1
1
1
1
1
1
1
1
1
1
0.9926158
1
1
1
1
1
1
1
1
1
1
1
1
1
1
1
1
1
1
1
1
1
1
1
1
1
1
1
1
1
1
1
1
1
1
1
1
1
1
1
1
1
1
1
1
1
1
1
1
1
1
1
1
1
1
1
1
1
1
1
1
1
1
1
1
1
1
1
1
1
1
1
1
1
1
1
1
1
1
1
1
1
1
1
1
1
1
1
1
1
1
1
1
1
1
1
1
1
1
1
1
1
1
1
1
1
1
1
1
1
1
1
1
1
1
1
1
1
1
1
1
1
1
1
1
1
1
1
1
1
1
1
1
1
1
1
1
1
1
1
1
1
1
1
1
1
1
1
1
1
1
1
1
1
1
1
1
1
1
1
1
1
1
1
1
1
1
1
1
1
1
1
1
1
1
1
1
1
1
1
1
1
1
1
1
1
1
1
1
1
1
1
1
1
1
1
1
1
1
1
1
1
1
1
1
1
1
1
1
1
1
1
1
1
1
1
1
1
1
1
1
1
1
1
1
1
1
1
1
1
1
1
1
1
1
1
1
1
1
1
1
1
1
1
1
1
1
1
1
1
1
1
1
1
1
1
1
1
1
1
1
1
1
1
1
1
1
1
1
1
1
1
1
1
1
1
1
1
1
1
1
1
1
1
1
1
1
1
1
1
1
1
1
1
1
1
1
1
1
1
1
1
1
1
1
1
1
1
1
1
1
1
1
1
1
1
1
1
1
1
1
1
1
1
1
1
1
1
1
1
1
1
1
1
1
1
1
1
1
1
1
1
1
1
1
1
1
1
1
1
1
1
1
1
1
1
1
1
1
1
1
1
1
1
1
1
1
1
1
1
1
1
1
1
1
1
1
1
1
1
1
1
1
1
1
1
1
1
1
1
1
1
1
1
1
1
1
1
1
1
1
1
1
1
1
1
1
1
1
1
1
1
1
1
1
1
1
1
1
1
1
1
1
1
1
1
1
1
1
1
1
1
1
1
1
1
1
1
1
1
1
1
1
1
1
1
1
1
1
1
1
1
1
1
1
1
1
1
1
1
1
1
1
1
1
1
1
1
1
1
1
1
1
1
1
1
1
1
1
1
1
1
1
1
1
1
1
1
1
1
1
1
1
1
1
1
1
1
1
1
1
1
1
1
1
1
1
1
1
1
1
1
1
1
1
1
1
1
1
1
1
1
1
1
1
1
1
1
1
1
1
1
1
1
1
1
1
1
1
1
1
1
1
1
1
1
1
1
1
1
1
1
1
1
1
1
1
1
1
1
1
1
1
1
1
1
1
1
1
1
1
1
1
1
1
1
1
1
1
1
1
1
1
1
1
1
1
1
1
1
1
1
1
1
1
1
1
1
1
1
1
1
1
1
1
1
1
1
1
1
1
1
1
1
1
1
1
1
1
1
1
1
1
1
1
1
1
1
1
1
1
1
1
1
1
1
1
1
1
1
1
1
1
1
1
1
1
1
1
1
1
1
1
1
1
1
1
1
1
1
1
1
1
1
1
1
1
1
1
1
1
1
1
1
1
1
1
1
1
1
1
1
1
1
1
1
1
1
1
1
1
1
1
1
1
1
1
1
1
1
1
1
1
1
1
1
1
1
1
1
1
1
1
1
1
1
1
1
1
1
1
1
1
1
1
1
1
1
1
1
1
1
1
1
1
1
1
1
1
1
1
1
1
1
1
1
1
1
1
1
1
1
1
1
1
1
1
1
1
1
1
1
1
1
1
1
1
1
1
1
1
1
1
1
1
1
1
1
1
1
1
1
1
1
1
1
1
1
1
1
1
1
1
1
1
1
1
1
1
1
1
1
1
1
1
1
1
1
1
1
1
1
1
1
1
1
1
1
1
1
1
1
1
1
1
1
1
1
1
1
1
1
1
1
1
1
1
1
1
1
1
1
1
1
1
1
1
1
1
1
1
1
1
1
1
1
1
1
1
1
1
1
1
1
1
1
1
1
1
1
1
1
1
1
1
1
1
1
1
1
1
1
1
1
1
1
1
1
1
1
1
1
1
1
1
1
1
1
1
1
1
1
1
1
1
1
1
1
1
1
1
1
1
1
1
1
1
1
1
1
1
1
1
1
1
1
1
1
1
1
1
1
1
1
1
1
1
1
1
1
1
1
1
1
1
1
1
1
1
1
1
1
1
1
1
1
1
1
1
1
1
1
1
1
1
1
1
1
1
1
1
1
1
1
1
1
1
1
1
1
1
1
1
1
1
1
1
1
1
1
1
1
1
1
1
1
1
1
1
1
1
1
1
1
1
1
1
1
1
1
1
1
1
1
1
1
1
1
1
1
1
1
1
1
1
1
1
1
1
1
1
1
1
1
1
1
1
1
1
1
1
1
1
1
1
1
1
1
1
1
1
1
1
1
1
1
1
1
1
1
1
1
1
1
1
1
1
1
1
1
1
1
1
1
1
1
1
1
1
1
1
1
1
1
1
1
1
1
1
1
1
1
1
1
1
1
1
1
1
1
1
1
1
1
1
1
1
1
1
1
1
1
1
1
1
1
1
1
1
1
1
1
1
1
1
1
1
1
1
1
1
1
1
1
1
1
1
1
1
1
1
1
1
1
1
1
1
1
1
1
1
1
1
1
1
1
1
1
1
1
1
1
1
1
1
1
1
1
1
1
1
1
1
1
1
1
1
1
1
1
1
1
1
1
1
1
1
1
1
1
1
1
1
1
1
1
1
1
1
1
1
1
1
1
1
1
1
1
1
1
1
1
1
1
1
1
1
1
1
1
1
1
1
1
1
1
1
1
1
1
1
1
1
1
1
1
1
1
1
1
1
1
1
1
1
1
1
1
1
1
0.4351569
0.4353031
0.4346682
0.4315635
0.4344004
0.4278353
0.4302946
0.4267143
0.4260469
0.4295041
0.426675
0.4282383
0.4307048
0.4294117
0.4318025
0.4302818
0.4301542
0.4305266
0.4311016
0.4331744
0.4314372
0.9999999
0.9999998
0.9999981
1
1
1
1
1
1
1
1
1
1
1
1
1
1
1
0.9999197
0.9998602
0.9994275
1
1
1
1
1
0.9432717
0.4635925
1
1
0.4411305
0.4366174
1
1
1
1
1
1
1
1
1
1
1
1
1
1
1
1
1
1
1
1
1
1
1
1
1
1
1
1
1
1
1
1
0.44995
0.4416185
1
1
1
0.9934469
0.5228534
1
1
1
0.9997297
0.9998542
0.9990801
0.9999966
0.999978
1
1
1
1
1
0.9999996
0.9999997
0.9999977
1
1
1
1
1
1
1
1
1
1
1
1
1
1
1
0.4278862
0.4278614
0.4265863
0.4313565
0.4313296
0.4294061
0.4374442
0.4373927
0.433834
0.496824
0.4914472
0.4438677
0.4278333
0.4278134
0.4265435
0.431303
0.4312775
0.4293556
0.4373377
0.4372848
0.4337633
0.486872
0.4858829
0.4435608
0.4312526
0.4312268
0.4293142
0.4372309
0.4371782
0.4336952
0.4855458
0.4851905
0.4433481
0.4277258
0.4277021
0.4264613
0.4311991
0.431172
0.4292495
0.4371249
0.4370712
0.4336248
0.4848396
0.4844996
0.443187
0.427677
0.4276518
0.4264114
0.4311449
0.4311192
0.4291973
0.4370179
0.4369645
0.4335554
0.4841688
0.4838534
0.443056
0.4310925
0.4310665
0.4291468
0.4369132
0.4368686
0.4334867
0.483555
0.483261
0.4429336
0.4275964
0.4275994
0.4263181
0.4310434
0.4310196
0.4291574
0.4368241
0.4367792
0.4334178
0.4829747
0.4827003
0.4428186
0.4309935
0.4309681
0.4291171
0.4367344
0.4366897
0.4333526
0.4824367
0.4821911
0.4427128
0.4275348
0.4275134
0.4262254
0.4309416
0.4309167
0.4290751
0.4366444
0.4366
0.4332908
0.4819375
0.4816853
0.4426098
0.4274913
0.4274703
0.4261798
0.4308904
0.4308676
0.429034
0.4365548
0.4365101
0.4332295
0.4814468
0.4812048
0.44251
0.4274485
0.4274285
0.426153
0.4308436
0.4308207
0.4289925
0.4364648
0.43642
0.433168
0.4809781
0.4807599
0.4424176
0.4274249
0.42742
0.4261423
0.4307967
0.4307726
0.428968
0.4363746
0.4363297
0.4331063
0.4805467
0.4803303
0.4423271
0.4274151
0.4274106
0.4261319
0.4307683
0.4307633
0.4289591
0.4362841
0.4362364
0.4330694
0.4801171
0.4798858
0.442244
0.4274056
0.4274008
0.4261215
0.4307576
0.4307522
0.4289501
0.436229
0.4362176
0.4330542
0.4796365
0.478847
0.4422485
0.4273957
0.4273905
0.4261114
0.4307459
0.4307399
0.4289404
0.436205
0.4361935
0.433038
0.477207
0.4768765
0.4422569
0.4273856
0.4273797
0.4261009
0.4307334
0.4307269
0.4289302
0.4361797
0.4361677
0.433021
0.4768526
0.4765864
0.4423099
0.4273711
0.427322
0.4260872
0.4307204
0.4307076
0.4288514
0.4361538
0.4361406
0.4330028
0.476197
0.4758621
0.4423569
0.4272704
0.4272562
0.4260729
0.430696
0.4306885
0.4287871
0.4361263
0.4361115
0.4329831
0.4755046
0.4751549
0.4424033
0.4272482
0.4272409
0.4260608
0.4306807
0.4306726
0.4287719
0.4360969
0.4360817
0.4329623
0.474797
0.4744424
0.4424505
0.427233
0.4272248
0.4260484
0.4306643
0.4306556
0.4287556
0.4360659
0.4360503
0.4329404
0.4741359
0.4738188
0.4425074
0.427217
0.4272079
0.4260352
0.430647
0.4306375
0.4287386
0.4360338
0.4360176
0.4329165
0.4735189
0.4732178
0.4425635
0.4271994
0.4271887
0.426022
0.4306283
0.4306183
0.4287197
0.4360003
0.4359841
0.4328926
0.4729126
0.4726161
0.4426215
0.4271779
0.427176
0.4260023
0.4306073
0.4305464
0.4286647
0.4359672
0.4359499
0.432863
0.4723008
0.4719997
0.4426767
0.4304513
0.4304011
0.428553
0.435933
0.435915
0.4328252
0.4716863
0.4713672
0.4427306
0.427127
0.4271219
0.4259775
0.4303857
0.4303711
0.4285071
0.4358974
0.4358789
0.432795
0.4710538
0.4707432
0.4427845
0.4271132
0.4271015
0.4259542
0.4303568
0.4303416
0.4284802
0.4358603
0.4358412
0.4327624
0.4704304
0.4701088
0.4428373
0.4270891
0.4270761
0.4259341
0.4303186
0.4302581
0.4284469
0.4358222
0.4357957
0.432648
0.4697922
0.469465
0.4428896
0.4270628
0.4270476
0.425915
0.4301449
0.4300778
0.428409
0.4357651
0.4357403
0.4324226
0.4691433
0.468814
0.4429285
0.4232437
0.4232415
0.4225995
0.4248809
0.4248728
0.4240117
0.4270319
0.4270145
0.4258662
0.4300493
0.4300266
0.4283696
0.4357194
0.4356989
0.4323764
0.4684931
0.4681544
0.4429548
0.4232357
0.4232277
0.4225834
0.424863
0.4248509
0.4239896
0.4269969
0.4269786
0.4258358
0.4300034
0.4299798
0.4283291
0.4356779
0.4356457
0.43231
0.4678205
0.4674773
0.4429692
0.4232151
0.4232044
0.4225421
0.4248377
0.4248245
0.4239679
0.4269586
0.4269398
0.4258033
0.4299505
0.4299246
0.4282865
0.4354093
0.4352308
0.4320268
0.4671357
0.4667828
0.4429365
0.4231898
0.423165
0.4225062
0.4248111
0.424799
0.4239439
0.4269197
0.426902
0.425772
0.4299023
0.4298821
0.4282467
0.4351777
0.4351433
0.431942
0.4664426
0.4660839
0.4428116
0.4231492
0.4231337
0.4224712
0.4247896
0.424784
0.4239211
0.426887
0.4268768
0.4257523
0.4298624
0.429844
0.4282178
0.4350619
0.4347021
0.4318634
0.4657128
0.4652583
0.4416565
0.4231072
0.4230778
0.4224802
0.4247794
0.4247844
0.423894
0.4268757
0.4268878
0.4257633
0.4298347
0.4298273
0.428225
0.4343991
0.4341364
0.4317506
0.4647408
0.4639299
0.4403496
0.4230778
0.4231003
0.4225114
0.4247986
0.4248397
0.4238747
0.4269288
0.4270169
0.4258551
0.4298193
0.4298165
0.4283396
0.4338186
0.4335187
0.4314794
0.4628688
0.462561
0.4391524
0.4231569
0.4232441
0.4226308
0.4249394
0.4250216
0.4240212
0.4271738
0.4273702
0.4262131
0.4298306
0.4299091
0.4286385
0.4331736
0.4325154
0.4311791
0.4606403
0.458618
0.4360368
0.4234068
0.4236104
0.4229641
0.4251641
0.4253948
0.4245101
0.4275711
0.4278657
0.4267672
0.4301523
0.4306028
0.4290967
0.4323189
0.4327551
0.431862
0.457806
0.4570009
0.4351257
0.4238748
0.4241181
0.4234611
0.4256528
0.4260189
0.425036
0.4283118
0.4288013
0.4269949
0.4312897
0.4318925
0.4300052
0.4335257
0.4344182
0.4333172
0.4484027
0.4467221
0.4355485
0.4243765
0.4245827
0.4238722
0.4263005
0.4265871
0.4255033
0.4289875
0.4290774
0.4278618
0.4319934
0.4321752
0.4309365
0.4350807
0.4355334
0.4337546
0.4453282
0.4430154
0.4361348
0.4246978