/*--------------------------------*- C++ -*----------------------------------*\
| =========                 |                                                 |
| \\      /  F ield         | OpenFOAM: The Open Source CFD Toolbox           |
|  \\    /   O peration     | Version:  2206                                  |
|   \\  /    A nd           | Website:  www.openfoam.com                      |
|    \\/     M anipulation  |                                                 |
\*---------------------------------------------------------------------------*/
FoamFile
{
    version     2.0;
    format      ascii;
    arch        "LSB;label=32;scalar=64";
    class       volScalarField;
    location    "2.4";
    object      ddt0(omega.b);
}
// * * * * * * * * * * * * * * * * * * * * * * * * * * * * * * * * * * * * * //

dimensions      [0 0 -2 0 0 0 0];

internalField   nonuniform List<scalar> 
13078
(
-1.539375e-08
-0.05920752
-0.1069816
-0.1088029
-0.1091542
-0.1094699
-0.1098282
-4.126727e-09
-0.06087563
-0.1073081
-0.1088421
-0.1091501
-0.1094645
-0.1098216
-3.093275e-09
-0.06856109
-0.1075182
-0.1088491
-0.1091466
-0.1094602
-0.1098159
-6.313221e-09
-0.07144986
-0.1076081
-0.1088513
-0.1091452
-0.1094569
-0.1098107
-1.138324e-08
-0.07248059
-0.1076502
-0.1088578
-0.1091448
-0.109454
-0.1098059
-1.76934e-08
-0.07295663
-0.1076745
-0.1088631
-0.1091477
-0.1094513
-0.1098012
-2.479682e-08
-0.07323188
-0.1076772
-0.1088648
-0.10915
-0.1094525
-0.1097966
-3.385721e-08
-0.07341368
-0.1076717
-0.108865
-0.1091511
-0.1094535
-0.1097966
-4.613053e-08
-0.07356301
-0.1076781
-0.1088652
-0.1091515
-0.1094538
-0.1097967
-6.132211e-08
-0.07368497
-0.1076819
-0.1088648
-0.1091512
-0.1094536
-0.1097964
-7.941049e-08
-0.07379538
-0.1076846
-0.108864
-0.1091506
-0.109453
-0.1097957
-1.012262e-07
-0.07390453
-0.1076866
-0.108863
-0.1091496
-0.1094521
-0.1097947
-1.280405e-07
-0.07401742
-0.1076885
-0.1088618
-0.1091486
-0.109451
-0.1097936
-1.617439e-07
-0.07414102
-0.1076905
-0.1088605
-0.1091472
-0.1094497
-0.1097921
-2.040823e-07
-0.07427954
-0.1076917
-0.1088575
-0.1091437
-0.1094481
-0.1097906
-2.572149e-07
-0.07443605
-0.107693
-0.1088539
-0.1091405
-0.1094464
-0.1097889
-3.241625e-07
-0.07461606
-0.1076959
-0.1088522
-0.1091388
-0.1094447
-0.1097871
-4.08829e-07
-0.07482335
-0.1076993
-0.1088506
-0.109137
-0.1094429
-0.1097852
-5.161995e-07
-0.07506197
-0.1077034
-0.1088488
-0.1091351
-0.1094407
-0.1097831
-6.526304e-07
-0.07533716
-0.1077082
-0.1088468
-0.109131
-0.1094356
-0.1097806
-8.262112e-07
-0.07565354
-0.1077139
-0.1088446
-0.1091257
-0.1094307
-0.109778
-1.047248e-06
-0.07601797
-0.1077207
-0.1088425
-0.1091232
-0.1094281
-0.1097754
-1.328857e-06
-0.07643682
-0.1077287
-0.1088401
-0.1091206
-0.1094254
-0.1097722
-1.687617e-06
-0.07691705
-0.107738
-0.1088377
-0.1091174
-0.1094196
-0.109765
-2.144429e-06
-0.07746672
-0.1077489
-0.108835
-0.109114
-0.1094114
-0.1097579
-2.725464e-06
-0.07809536
-0.1077615
-0.1088321
-0.1091108
-0.1094079
-0.109754
-3.463284e-06
-0.07881392
-0.1077761
-0.108829
-0.1091072
-0.1094041
-0.1097512
-4.398647e-06
-0.07958013
-0.1077923
-0.1088257
-0.1091032
-0.1093991
-0.1097426
-5.581613e-06
-0.08052801
-0.1078125
-0.1088222
-0.109099
-0.1093941
-0.1097274
-7.085889e-06
-0.08071312
-0.1078255
-0.1088183
-0.1090945
-0.1093894
-0.1097236
-9.007686e-06
-0.08254067
-0.1078559
-0.1088137
-0.1090895
-0.1093837
-0.1097149
-1.136308e-05
-0.08348635
-0.1078772
-0.1088062
-0.1090829
-0.1093774
-0.109707
-1.427522e-05
-0.08458606
-0.1078894
-0.1088122
-0.1090741
-0.1093705
-0.1096995
-1.782986e-05
-0.08617674
-0.1078888
-0.1088146
-0.1090656
-0.1093614
-0.1096915
-2.21312e-05
-0.08782164
-0.1079315
-0.1088139
-0.1090991
-0.1093559
-0.1096874
-2.726819e-05
-0.08929752
-0.1079854
-0.1088004
-0.109114
-0.1094097
-0.1097053
-3.330857e-05
-0.09045618
-0.108061
-0.1088565
-0.1091292
-0.1094711
-0.1097443
-4.027577e-05
-0.09111233
-0.1081543
-0.108932
-0.1092026
-0.1095137
-0.1098058
-4.811753e-05
-0.09080104
-0.1082525
-0.1090142
-0.1092642
-0.1095184
-0.1098293
-5.681519e-05
-0.08751577
-0.1083117
-0.1090692
-0.1093189
-0.1095515
-0.1098553
-6.630271e-05
-0.08808701
-0.1082816
-0.1090978
-0.1093327
-0.1095453
-0.1097473
-7.572959e-05
-0.08554616
-0.1082301
-0.1090863
-0.1092799
-0.1095095
-0.1098081
-8.474728e-05
-0.08188174
-0.107982
-0.1090073
-0.1092792
-0.1094909
-0.109919
-9.268297e-05
-0.07676652
-0.1077033
-0.108877
-0.1092408
-0.1095883
-0.1099151
-9.896532e-05
-0.06837672
-0.1073767
-0.1087787
-0.1090771
-0.1096238
-0.1100889
-0.0001029326
-0.06359083
-0.1069203
-0.1086257
-0.1089407
-0.1094121
-0.1100808
-0.0001030687
-0.05592763
-0.1065006
-0.1084819
-0.1087566
-0.1092021
-0.1096469
0.0003070671
-0.04728164
-0.1059225
-0.108289
-0.1085974
-0.1090833
-0.1094767
0.005133819
-0.03646588
-0.1052843
-0.1080095
-0.108343
-0.1088011
-0.109087
0.01629326
-0.02512641
-0.1046796
-0.1077485
-0.1080642
-0.1083141
-0.1085822
0.03556068
-0.01066377
-0.1041045
-0.107491
-0.1077054
-0.1076909
-0.1076943
0.06140748
0.0008507267
-0.1036918
-0.107408
-0.1073873
-0.1070623
-0.1067672
0.08445025
0.01049929
-0.1029105
-0.1070119
-0.1070701
-0.1067201
-0.1063356
0.1007093
0.01362477
-0.1025802
-0.106629
-0.1066023
-0.1062878
-0.1060254
0.1128477
0.01355927
-0.1024164
-0.1063659
-0.1063181
-0.1060239
-0.105711
0.1232592
0.0155758
-0.1022111
-0.1061205
-0.1061077
-0.1058945
-0.1056974
0.1223335
0.01595385
-0.102069
-0.1058696
-0.1059252
-0.1057796
-0.1055082
0.1116768
0.01172776
-0.102284
-0.1059103
-0.105927
-0.1056984
-0.1053444
0.09949771
0.009405396
-0.1024515
-0.1059683
-0.1059776
-0.1057442
-0.1054134
0.08243163
0.006250935
-0.1025973
-0.1059857
-0.1059863
-0.1057198
-0.1052668
0.05893446
-0.002654089
-0.1030965
-0.1059223
-0.105896
-0.1056499
-0.1053043
0.0331024
-0.0141657
-0.1036404
-0.1062351
-0.1062313
-0.1059907
-0.1056944
0.01492349
-0.02868402
-0.1041592
-0.1063254
-0.1063487
-0.1061951
-0.1058417
0.004289227
-0.03784206
-0.104675
-0.1065338
-0.1065431
-0.1065027
-0.105978
0.000228118
-0.04739034
-0.1053126
-0.1068456
-0.1067954
-0.1068893
-0.1065518
-0.0001019865
-0.05716995
-0.1060077
-0.1072494
-0.1071434
-0.1072866
-0.1074333
-9.894909e-05
-0.06674074
-0.1065977
-0.1076451
-0.1075282
-0.1075875
-0.1078374
-9.305571e-05
-0.07235781
-0.1071625
-0.1080661
-0.1079108
-0.1079294
-0.1081102
-8.577185e-05
-0.08104949
-0.1075198
-0.1083672
-0.1083704
-0.108233
-0.1082995
-7.742428e-05
-0.08578133
-0.1078116
-0.1085452
-0.1086723
-0.1086231
-0.1085887
-6.843603e-05
-0.08842729
-0.1080405
-0.1086956
-0.1088246
-0.1089795
-0.1089789
-5.932334e-05
-0.08968911
-0.1081111
-0.1087898
-0.108967
-0.109139
-0.1093093
-5.034242e-05
-0.08871701
-0.1081294
-0.1088427
-0.1090542
-0.1092527
-0.1095129
-4.219819e-05
-0.09012992
-0.1080911
-0.1088347
-0.1090632
-0.1093099
-0.1096379
-3.497694e-05
-0.08971853
-0.1080394
-0.1088015
-0.1090469
-0.1093698
-0.1096744
-2.866371e-05
-0.08863208
-0.1079799
-0.1087709
-0.1090465
-0.109371
-0.1096434
-2.326687e-05
-0.08736107
-0.1079335
-0.1087599
-0.1090631
-0.1093293
-0.1096458
-1.870849e-05
-0.08558808
-0.1078918
-0.1087899
-0.1090641
-0.1093289
-0.1096603
-1.496638e-05
-0.08444302
-0.1078582
-0.1087997
-0.1090527
-0.1093464
-0.1096756
-1.191054e-05
-0.08305724
-0.1078612
-0.1088019
-0.1090649
-0.1093594
-0.1096882
-9.426727e-06
-0.08220781
-0.1078537
-0.1088011
-0.1090758
-0.1093691
-0.1096982
-7.430632e-06
-0.08145983
-0.1078372
-0.1088096
-0.1090841
-0.1093772
-0.1097078
-5.804537e-06
-0.07982863
-0.1078085
-0.1088153
-0.1090905
-0.1093845
-0.1097178
-4.541485e-06
-0.07976458
-0.1077981
-0.1088202
-0.1090962
-0.1093905
-0.1097235
-3.555396e-06
-0.07893012
-0.1077796
-0.1088243
-0.1091012
-0.1093965
-0.1097387
-2.779748e-06
-0.07825813
-0.1077649
-0.1088281
-0.1091058
-0.1094021
-0.1097484
-2.170975e-06
-0.0776191
-0.1077516
-0.1088316
-0.1091098
-0.1094065
-0.1097521
-1.693973e-06
-0.0770575
-0.1077402
-0.1088347
-0.1091134
-0.1094105
-0.1097565
-1.322956e-06
-0.0765645
-0.1077304
-0.1088375
-0.109117
-0.1094187
-0.1097639
-1.033568e-06
-0.07613265
-0.1077219
-0.10884
-0.1091203
-0.1094248
-0.1097716
-8.084872e-07
-0.07575536
-0.1077148
-0.1088424
-0.109123
-0.1094277
-0.109775
-6.328586e-07
-0.07542688
-0.1077087
-0.1088446
-0.1091257
-0.1094305
-0.1097777
-4.95554e-07
-0.0751418
-0.1077036
-0.1088468
-0.1091309
-0.1094354
-0.1097805
-3.883857e-07
-0.0748941
-0.1076995
-0.1088488
-0.1091351
-0.1094407
-0.1097831
-3.043205e-07
-0.07467986
-0.107696
-0.1088505
-0.109137
-0.1094429
-0.1097852
-2.382056e-07
-0.07449445
-0.1076932
-0.1088522
-0.1091388
-0.1094447
-0.1097872
-1.860687e-07
-0.07433444
-0.1076908
-0.1088538
-0.1091405
-0.1094464
-0.109789
-1.448232e-07
-0.07419658
-0.10769
-0.1088574
-0.1091437
-0.1094481
-0.1097908
-1.122548e-07
-0.07407616
-0.1076893
-0.1088603
-0.1091472
-0.1094498
-0.1097924
-8.700282e-08
-0.07397063
-0.1076879
-0.1088617
-0.1091486
-0.1094511
-0.1097938
-6.751956e-08
-0.07387758
-0.1076867
-0.1088629
-0.1091497
-0.1094523
-0.1097951
-5.282729e-08
-0.0737906
-0.1076854
-0.1088639
-0.1091508
-0.1094534
-0.1097962
-4.193722e-08
-0.07370762
-0.1076839
-0.1088649
-0.1091516
-0.1094542
-0.1097972
-3.315114e-08
-0.07362175
-0.1076818
-0.1088657
-0.1091522
-0.1094547
-0.1097978
-2.599658e-08
-0.07352326
-0.1076779
-0.1088661
-0.1091524
-0.1094549
-0.1097981
-2.01371e-08
-0.07341639
-0.1076873
-0.108867
-0.1091522
-0.1094546
-0.1097984
-1.565273e-08
-0.07326328
-0.1076907
-0.108867
-0.1091511
-0.1094541
-0.1098035
-1.294694e-08
-0.0730171
-0.1076769
-0.1088641
-0.1091493
-0.1094575
-0.1098086
-1.155046e-08
-0.07260841
-0.107654
-0.1088597
-0.1091505
-0.1094606
-0.1098135
-1.121163e-08
-0.0717001
-0.1076183
-0.1088575
-0.1091514
-0.1094636
-0.1098183
-1.243888e-08
-0.06944519
-0.107577
-0.1088559
-0.1091531
-0.109467
-0.1098234
-1.004101e-08
-0.06478999
-0.1074315
-0.1088539
-0.1091571
-0.1094714
-0.1098291
-0.1102476
-0.1107747
-0.1114796
-0.1121514
-0.1133458
-0.1152171
-0.1253104
-0.1102394
-0.1107637
-0.1114649
-0.1121335
-0.113324
-0.1151633
-0.1171616
-0.1102319
-0.1107534
-0.111451
-0.1123672
-0.1133031
-0.1151329
-0.1170204
-0.1102248
-0.1107434
-0.1114369
-0.1120989
-0.1132808
-0.1151028
-0.1169038
-0.1102183
-0.1107336
-0.1114232
-0.1120814
-0.1132596
-0.1150729
-0.1170369
-0.1102117
-0.1107238
-0.1114096
-0.1120644
-0.1132384
-0.1150431
-0.1173182
-0.1102051
-0.110714
-0.1113959
-0.1120477
-0.1132325
-0.1150134
-0.117605
-0.1101986
-0.1107041
-0.1113822
-0.1120312
-0.1132268
-0.1149841
-0.1179579
-0.1101978
-0.1106946
-0.111369
-0.1120141
-0.1132097
-0.1149576
-0.1182138
-0.1101971
-0.1106925
-0.1113563
-0.1119969
-0.1131925
-0.1149313
-0.1185162
-0.1101962
-0.110691
-0.1113531
-0.1119799
-0.1131752
-0.1149049
-0.1188347
-0.1101949
-0.1106891
-0.1113505
-0.1119761
-0.1131576
-0.1148787
-0.1190924
-0.1101935
-0.110687
-0.1113476
-0.1119725
-0.1131539
-0.1148518
-0.1193002
-0.1101918
-0.1106848
-0.1113445
-0.1119685
-0.1131497
-0.1148449
-0.1195566
-0.11019
-0.1106822
-0.1113411
-0.1119643
-0.1131452
-0.1148384
-0.1186088
-0.110188
-0.1106795
-0.1113375
-0.1119599
-0.1131403
-0.1148315
-0.1189479
-0.1101858
-0.1106766
-0.1113337
-0.1119551
-0.1131339
-0.1148233
-0.1189266
-0.1101835
-0.1106736
-0.1113296
-0.1119483
-0.1130807
-0.1148145
-0.1188842
-0.1101811
-0.1106705
-0.1113253
-0.111943
-0.1130726
-0.114805
-0.1188472
-0.1101785
-0.1106671
-0.1113207
-0.1119373
-0.1130652
-0.1147948
-0.1188096
-0.1101757
-0.1106636
-0.1113159
-0.1119312
-0.1130572
-0.1147839
-0.1187797
-0.1101727
-0.1106598
-0.1113104
-0.1119247
-0.1130488
-0.1147717
-0.1187883
-0.1101695
-0.1106557
-0.1113045
-0.1119217
-0.1130389
-0.1147584
-0.1187964
-0.1101656
-0.1106515
-0.1112981
-0.1121457
-0.1129901
-0.11474
-0.1188111
-0.1101615
-0.1106468
-0.1112915
-0.1119024
-0.1129598
-0.114723
-0.118831
-0.1101575
-0.110642
-0.1112883
-0.1118932
-0.1129476
-0.114706
-0.1188553
-0.1101522
-0.1106364
-0.111279
-0.111885
-0.1129349
-0.1146853
-0.1188877
-0.1101399
-0.1106282
-0.1112821
-0.1118756
-0.1129185
-0.1145793
-0.118918
-0.1101295
-0.1104925
-0.1110823
-0.1118712
-0.1129028
-0.1145345
-0.1189528
-0.1101399
-0.1104961
-0.1110841
-0.1118569
-0.112888
-0.114505
-0.1189867
-0.11011
-0.1104948
-0.1110769
-0.1118467
-0.1128723
-0.1144203
-0.1190371
-0.1100844
-0.110443
-0.1110674
-0.1118352
-0.1128538
-0.1143356
-0.1190688
-0.110076
-0.1104699
-0.1110409
-0.1118202
-0.1128303
-0.1143035
-0.1192079
-0.1100631
-0.1104476
-0.1110186
-0.1117969
-0.1127974
-0.1142618
-0.1187251
-0.1100516
-0.1104535
-0.1110251
-0.1117533
-0.1127639
-0.1143017
-0.1181551
-0.1100627
-0.110445
-0.1109089
-0.1117025
-0.1127422
-0.1144076
-0.1173679
-0.1100814
-0.1104046
-0.1108521
-0.1115403
-0.1126571
-0.1143563
-0.1188141
-0.1100558
-0.1103241
-0.1107393
-0.1113919
-0.1123405
-0.1139014
-0.1172356
-0.1099954
-0.1101948
-0.1105527
-0.1110779
-0.1119361
-0.1136866
-0.1162413
-0.1099615
-0.1100634
-0.110508
-0.1112117
-0.1121616
-0.1140739
-0.117449
-0.1101168
-0.1101891
-0.1109738
-0.1115633
-0.1124572
-0.1142833
-0.1182139
-0.1102896
-0.110508
-0.1113785
-0.1117256
-0.1126009
-0.1141229
-0.1183315
-0.1105069
-0.1109794
-0.1115756
-0.111839
-0.1127905
-0.1142505
-0.1172517
-0.1107433
-0.1111308
-0.111869
-0.1116398
-0.1126107
-0.1139971
-0.117924
-0.1106647
-0.111399
-0.1116108
-0.1115739
-0.1119789
-0.114043
-0.1186214
-0.1106225
-0.1113574
-0.1120837
-0.1111909
-0.1118961
-0.1134901
-0.1194049
-0.1102529
-0.1112896
-0.1115471
-0.1112414
-0.111286
-0.1134564
-0.1178402
-0.1100003
-0.1109792
-0.1113829
-0.1106217
-0.1113286
-0.1130248
-0.1193892
-0.109572
-0.1106249
-0.1102241
-0.1102573
-0.1110787
-0.1128571
-0.117445
-0.108838
-0.1094799
-0.1094812
-0.1094953
-0.1106209
-0.1126312
-0.1159802
-0.1080254
-0.1090314
-0.1083578
-0.1086656
-0.1103861
-0.1123058
-0.1145128
-0.1070516
-0.1077284
-0.1077703
-0.1080946
-0.1097546
-0.1117222
-0.113913
-0.1064624
-0.1068444
-0.1072631
-0.1080023
-0.1096165
-0.1113996
-0.11314
-0.1060155
-0.1064934
-0.106351
-0.1082463
-0.1087391
-0.1104948
-0.1136565
-0.1055233
-0.1058168
-0.1057436
-0.106897
-0.1080091
-0.1089525
-0.1094143
-0.1055448
-0.1055691
-0.1059525
-0.1069157
-0.1070938
-0.1094963
-0.1052056
-0.1054006
-0.1056533
-0.1060197
-0.106577
-0.1081515
-0.1050295
-0.1050789
-0.105167
-0.1064484
-0.1067407
-0.1081043
-0.1050979
-0.1052384
-0.1055671
-0.1071294
-0.1074167
-0.1088845
-0.1117436
-0.1052209
-0.1053982
-0.1055254
-0.1064711
-0.1078279
-0.1095565
-0.1143494
-0.1052152
-0.1052207
-0.1054138
-0.1060574
-0.1080319
-0.1102546
-0.1141263
-0.1054086
-0.1053548
-0.105792
-0.1060522
-0.1084067
-0.1103965
-0.1135096
-0.1054251
-0.1050404
-0.1056006
-0.1068278
-0.108413
-0.1102054
-0.1121156
-0.1058302
-0.1056913
-0.1063394
-0.1077589
-0.1089963
-0.110233
-0.1126925
-0.1065143
-0.1066484
-0.1066413
-0.1069896
-0.1085773
-0.1108299
-0.1155987
-0.1071776
-0.1068141
-0.1068003
-0.1066851
-0.1085485
-0.1111232
-0.1153416
-0.1078436
-0.1076367
-0.1072049
-0.1072803
-0.1088
-0.111016
-0.1150954
-0.1084296
-0.1084097
-0.1077338
-0.1075853
-0.1098144
-0.1110242
-0.1149547
-0.1085856
-0.1089079
-0.1082726
-0.1081311
-0.1095807
-0.1117366
-0.1138195
-0.1087374
-0.1090562
-0.1087889
-0.1087195
-0.1098179
-0.1117195
-0.1136496
-0.1089578
-0.1091267
-0.1092757
-0.1094038
-0.1108931
-0.1123482
-0.1143422
-0.1093949
-0.1093602
-0.1098186
-0.1102954
-0.1107268
-0.1122812
-0.1162621
-0.1097352
-0.1099115
-0.1101918
-0.1106435
-0.1116252
-0.1128966
-0.116497
-0.1098816
-0.1101754
-0.1106229
-0.1111859
-0.1121006
-0.113491
-0.1154031
-0.1099668
-0.1103535
-0.1107962
-0.1114723
-0.1126295
-0.1143513
-0.1154445
-0.110001
-0.1104387
-0.1108866
-0.1117786
-0.1127535
-0.1143886
-0.1173746
-0.1100123
-0.1104591
-0.1109115
-0.1117346
-0.1127745
-0.1143239
-0.1181789
-0.1100287
-0.1104625
-0.1109254
-0.1117343
-0.1127642
-0.1142171
-0.1178286
-0.1100498
-0.1104501
-0.1110136
-0.111779
-0.1127848
-0.1142226
-0.1184572
-0.1100655
-0.1104888
-0.1110228
-0.1117988
-0.1128099
-0.1142865
-0.1193727
-0.1100761
-0.1104914
-0.1110416
-0.1118146
-0.1128324
-0.1143045
-0.1194715
-0.1101014
-0.1104773
-0.1110621
-0.1118292
-0.1128524
-0.1143499
-0.1192896
-0.1101311
-0.1105067
-0.1110725
-0.1118427
-0.1128708
-0.1145135
-0.1191558
-0.1101249
-0.1105417
-0.1110824
-0.1118527
-0.1128884
-0.1145155
-0.1189964
-0.1101365
-0.110625
-0.1112763
-0.1118694
-0.1129049
-0.1145432
-0.1188527
-0.1101496
-0.1106336
-0.1112761
-0.1118846
-0.1129247
-0.1146406
-0.1187265
-0.1101555
-0.1106398
-0.111284
-0.1118921
-0.1129389
-0.1146954
-0.1186132
-0.1101601
-0.1106452
-0.1112913
-0.1118996
-0.1129526
-0.1147142
-0.1185225
-0.1101645
-0.1106503
-0.1112981
-0.1119069
-0.112966
-0.1147313
-0.1184191
-0.1101687
-0.1106549
-0.1113044
-0.111914
-0.1130208
-0.1147508
-0.1183656
-0.1101722
-0.1106593
-0.1113103
-0.1119208
-0.1130445
-0.1147666
-0.1182956
-0.1101754
-0.1106633
-0.1113157
-0.1119273
-0.1130536
-0.1147796
-0.1182489
-0.1101783
-0.1106671
-0.1113208
-0.1119335
-0.1130621
-0.1147916
-0.1182021
-0.1101811
-0.1106705
-0.1113256
-0.1119393
-0.11307
-0.1148025
-0.1181866
-0.1101836
-0.1106737
-0.1113299
-0.1119448
-0.1130773
-0.1148124
-0.1182338
-0.110186
-0.1106769
-0.1113341
-0.1119511
-0.1131052
-0.1148217
-0.1182714
-0.1101882
-0.1106799
-0.111338
-0.1119568
-0.1131391
-0.1148302
-0.1182984
-0.1101902
-0.1106826
-0.1113417
-0.1119614
-0.1131441
-0.1148379
-0.1181862
-0.1101921
-0.1106852
-0.1113452
-0.1119658
-0.1131489
-0.1148447
-0.1187046
-0.1101939
-0.1106876
-0.1113484
-0.1119698
-0.1131532
-0.1148518
-0.1189592
-0.1101954
-0.1106898
-0.1113513
-0.1119737
-0.1131573
-0.1148687
-0.1188272
-0.1101968
-0.1106918
-0.111354
-0.1119772
-0.113168
-0.1148949
-0.1186813
-0.110198
-0.1106935
-0.1113574
-0.1119878
-0.1131853
-0.1149211
-0.1185033
-0.1101989
-0.1106957
-0.1113701
-0.112005
-0.1132026
-0.1149472
-0.1182509
-0.1102
-0.1107054
-0.1113835
-0.1120223
-0.1132197
-0.1149735
-0.1180219
-0.1102067
-0.1107155
-0.1113973
-0.1120394
-0.113236
-0.1150011
-0.1178231
-0.1102137
-0.1107255
-0.1114111
-0.1120556
-0.1132296
-0.1150304
-0.1175938
-0.1102204
-0.1107353
-0.1114247
-0.1120727
-0.1132502
-0.1150599
-0.1173857
-0.1102269
-0.110745
-0.1114383
-0.1120898
-0.1132713
-0.1150895
-0.1173032
-0.1102337
-0.1107547
-0.1114519
-0.1121071
-0.1132925
-0.1151191
-0.1174133
-0.1102407
-0.1107646
-0.1114657
-0.1121245
-0.1133137
-0.1151489
-0.1176924
-0.1102481
-0.110775
-0.1114797
-0.1121421
-0.1133351
-0.1151851
-0.1220272
-0.614832
-0.7469305
-0.9738902
-0.9683936
-0.9681549
-0.9681568
-0.968157
-0.968157
-0.9681571
-0.9681572
-0.9681573
-0.9681574
-0.9681576
-0.9681578
-0.9681577
-0.9681579
-0.9681581
-0.9681583
-1.163018
-1.128541
-0.9721503
-0.9682291
-0.968127
-0.9681256
-0.9681256
-0.9681257
-0.9681256
-0.9681255
-0.9681255
-0.9681254
-0.9681254
-0.9681253
-0.9681255
-0.9681253
-0.9681252
-0.9681251
-1.10088
-0.8873926
-0.9659588
-0.9681082
-0.9681385
-0.9681381
-0.9681385
-0.9681386
-0.9681386
-0.9681385
-0.9681385
-0.9681385
-0.9681385
-0.9681384
-0.9681384
-0.9681384
-0.9681384
-0.9681383
-1.114481
-0.9017201
-0.9675046
-0.9681328
-0.9681379
-0.9681397
-0.9681399
-0.9681399
-0.9681399
-0.9681399
-0.9681399
-0.9681399
-0.96814
-0.96814
-0.9681399
-0.9681399
-0.96814
-0.96814
-1.120669
-0.9176109
-0.9680588
-0.9681376
-0.9681361
-0.9681386
-0.9681387
-0.9681387
-0.9681387
-0.9681387
-0.9681387
-0.9681387
-0.9681387
-0.9681387
-0.9681386
-0.9681386
-0.9681388
-0.9681388
-1.115697
-0.9213208
-0.968121
-0.9681376
-0.9681344
-0.9681384
-0.9681385
-0.9681385
-0.9681385
-0.9681385
-0.9681385
-0.9681385
-0.9681385
-0.9681385
-0.9681383
-0.9681383
-0.9681385
-0.9681385
-1.112365
-0.9244288
-0.9681297
-0.9681377
-0.9681332
-0.9681383
-0.9681384
-0.9681384
-0.9681385
-0.9681385
-0.9681385
-0.9681385
-0.9681385
-0.9681385
-0.9681381
-0.9681382
-0.9681385
-0.9681385
-1.101909
-0.9229727
-0.9681328
-0.9681379
-0.9681323
-0.9681383
-0.9681384
-0.9681384
-0.9681385
-0.9681385
-0.9681385
-0.9681385
-0.9681385
-0.9681385
-0.968138
-0.968138
-0.9681385
-0.9681385
-1.094553
-0.9145078
-0.9681268
-0.9681375
-0.9681328
-0.9681381
-0.9681383
-0.9681384
-0.9681385
-0.9681385
-0.9681385
-0.9681385
-0.9681385
-0.9681385
-0.9681377
-0.9681379
-0.9681385
-0.9681385
-1.085617
-0.9113408
-0.968127
-0.9681364
-0.968135
-0.9681379
-0.9681382
-0.9681383
-0.9681385
-0.9681385
-0.9681385
-0.9681385
-0.9681385
-0.9681385
-0.9681375
-0.9681377
-0.9681385
-0.9681385
-1.075499
-0.9109717
-0.9681221
-0.968135
-0.9681375
-0.9681376
-0.9681381
-0.9681382
-0.9681385
-0.9681385
-0.9681385
-0.9681385
-0.9681385
-0.9681385
-0.9681371
-0.9681375
-0.9681385
-0.9681385
-1.059607
-0.91747
-0.9680473
-0.9681338
-0.9681388
-0.9681373
-0.9681379
-0.9681382
-0.9681385
-0.9681385
-0.9681385
-0.9681385
-0.9681385
-0.9681385
-0.9681367
-0.9681372
-0.9681385
-0.9681385
-1.045032
-0.8958525
-0.9675077
-0.9681146
-0.9681386
-0.9681371
-0.9681378
-0.9681381
-0.9681384
-0.9681385
-0.9681385
-0.9681385
-0.9681385
-0.9681385
-0.9681361
-0.9681368
-0.9681385
-0.9681385
-1.04629
-0.8798923
-0.9660491
-0.9679484
-0.9681334
-0.9681367
-0.9681378
-0.968138
-0.9681384
-0.9681385
-0.9681385
-0.9681385
-0.9681385
-0.9681385
-0.9681355
-0.9681364
-0.9681385
-0.9681385
-0.9374982
-0.8895404
-0.969029
-0.967415
-0.968088
-0.9681364
-0.9681377
-0.9681379
-0.9681383
-0.9681385
-0.9681385
-0.9681385
-0.9681385
-0.9681385
-0.9681347
-0.9681359
-0.9681385
-0.9681385
-0.9321564
-0.8785165
-0.971105
-0.9683266
-0.9679402
-0.9681319
-0.9681376
-0.9681378
-0.9681382
-0.9681385
-0.9681385
-0.9681385
-0.9681385
-0.9681385
-0.9681339
-0.9681354
-0.9681385
-0.9681385
-0.9138018
-0.8812083
-0.9673864
-0.9691764
-0.9681697
-0.9681123
-0.9681372
-0.9681378
-0.968138
-0.9681384
-0.9681385
-0.9681385
-0.9681385
-0.9681385
-0.9681338
-0.9681353
-0.9681385
-0.9681385
-0.8905364
-0.8577977
-0.9668523
-0.9678194
-0.9684006
-0.9681184
-0.9681354
-0.9681375
-0.9681375
-0.9681384
-0.9681385
-0.9681385
-0.9681385
-0.9681384
-0.9681365
-0.9681376
-0.9681385
-0.9681385
-0.8689454
-0.8641518
-0.9686647
-0.9677421
-0.9680391
-0.9681551
-0.968131
-0.9681371
-0.9681367
-0.9681384
-0.9681385
-0.9681385
-0.9681385
-0.9681379
-0.9681394
-0.96814
-0.9681385
-0.9681385
-0.8472033
-0.8614645
-0.9685157
-0.9683181
-0.9680066
-0.9681497
-0.9681312
-0.9681359
-0.9681356
-0.9681384
-0.9681385
-0.9681385
-0.9681385
-0.9681375
-0.9681383
-0.968138
-0.9681385
-0.9681385
-0.8253178
-0.8594942
-0.9682091
-0.9682478
-0.9681405
-0.9681113
-0.9681495
-0.9681366
-0.9681356
-0.9681383
-0.9681385
-0.9681385
-0.9681385
-0.968138
-0.9681354
-0.9681373
-0.9681385
-0.9681385
-0.8063392
-0.8573149
-0.9681514
-0.9681498
-0.9681453
-0.968138
-0.9681328
-0.96814
-0.9681334
-0.9681381
-0.9681384
-0.9681384
-0.9681385
-0.9681372
-0.9681372
-0.9681382
-0.9681385
-0.9681385
-0.7888153
-0.8559496
-0.9681432
-0.9681268
-0.9680937
-0.9681439
-0.9681373
-0.9681388
-0.9681394
-0.968138
-0.9681383
-0.9681384
-0.9681385
-0.9681339
-0.9681317
-0.9681385
-0.9681385
-0.9681385
-0.7715189
-0.8548445
-0.9681389
-0.9681126
-0.9680564
-0.9681393
-0.9681367
-0.9681376
-0.9681271
-0.9681392
-0.9681384
-0.9681384
-0.9681384
-0.968112
-0.9680978
-0.9681383
-0.9681385
-0.9681384
-0.7550394
-0.8556113
-0.9681297
-0.9680835
-0.9680051
-0.9681372
-0.968132
-0.9681365
-0.9681259
-0.9681374
-0.9681386
-0.9681384
-0.9681382
-0.9680718
-0.9679883
-0.9681388
-0.9681385
-0.9681381
-0.7391749
-0.8543867
-0.9681102
-0.9679811
-0.9678677
-0.9681346
-0.9681276
-0.9681341
-0.9681167
-0.9681381
-0.9681379
-0.9681384
-0.9681381
-0.9681236
-0.9682226
-0.968139
-0.9681385
-0.9681359
-0.7222433
-0.8544124
-0.9680841
-0.9671342
-0.96702
-0.9681327
-0.9681144
-0.9681097
-0.9681011
-0.9681381
-0.9681383
-0.9681381
-0.9681365
-0.968089
-0.9680009
-0.968138
-0.9681384
-0.9681241
-0.7060269
-0.8549396
-0.9679914
-0.9592245
-0.9591781
-0.9681833
-0.9680793
-0.9678201
-0.9680299
-0.9681416
-0.9681387
-0.9681382
-0.9681294
-0.9681264
-0.9681138
-0.9681382
-0.9681379
-0.9680858
-0.6899831
-0.8525361
-0.9674637
-0.9143098
-0.9131407
-0.9685531
-0.9679851
-0.9656535
-0.9673804
-0.9681836
-0.9681388
-0.9681383
-0.9681218
-0.968133
-0.968145
-0.9681384
-0.9681356
-0.9680444
-0.6739891
-0.842929
-0.9659453
-0.9027375
-0.9423319
-0.9684083
-0.9678051
-0.9616904
-0.9645327
-0.968262
-0.9681389
-0.9681382
-0.9681185
-0.9681045
-0.9681257
-0.9681382
-0.9681223
-0.9681638
-0.6573585
-0.8071299
-0.9505735
-1.037306
-1.014197
-0.9644094
-0.9677114
-0.9743273
-0.9701051
-0.968012
-0.9681369
-0.9681374
-0.9680027
-0.9680059
-0.9681385
-0.9681359
-0.9680595
-0.9680811
-0.6391317
-0.7486264
-0.9060751
-0.8322237
-0.8378241
-0.9483371
-0.9672599
-0.9658548
-0.9686322
-0.9678991
-0.9681287
-0.9681353
-0.9678695
-0.9677433
-0.9681405
-0.9681199
-0.9679521
-0.9679917
-0.620256
-0.8898126
-0.9555782
-0.823808
-0.9798064
-0.8853578
-0.9659669
-0.9688141
-0.9678162
-0.9669778
-0.9680909
-0.9681168
-0.9681564
-0.9684968
-0.9681397
-0.9680524
-0.9681272
-0.9681993
-0.6634455
-0.89944
-0.9553358
-1.182808
-0.9237534
-1.050543
-0.9634569
-0.9667129
-0.9607992
-0.9684549
-0.9679637
-0.9679559
-0.968055
-0.968228
-0.9681289
-0.9678981
-0.9678106
-0.9679805
-0.5558947
-0.3892408
-0.8602358
-0.8194342
-1.120196
-0.9728115
-0.9640974
-0.9651528
-0.9737772
-0.9666254
-0.9666208
-0.9669236
-0.9675171
-0.9679994
-0.9680425
-0.9676314
-0.9675235
-0.9680236
-0.5668352
-0.6141897
-0.6297045
-0.781907
-0.8192502
-0.9585891
-0.9480673
-0.9508706
-0.9527215
-0.9551205
-0.9583874
-0.9613224
-0.9642818
-0.9662405
-0.9672593
-0.9677951
-0.9684874
-0.9680885
-0.5909113
-0.256309
-0.8100855
-0.9868283
-0.9805315
-0.9281659
-0.9390597
-0.9342045
-0.935237
-0.9347366
-0.9384
-0.9449571
-0.9515352
-0.9586573
-0.9627253
-0.9662337
-0.9667766
-0.9680659
-0.4782719
-0.929289
-0.9798886
-1.041947
-1.008876
-0.9558184
-0.952522
-0.9441189
-0.9472706
-0.9455391
-0.9413127
-0.9415024
-0.933247
-0.9404358
-0.9501119
-0.9598438
-0.9646868
-0.9673843
-0.9393925
-1.967028
-0.8340111
-0.9993539
-0.9478605
-0.9496622
-0.9566089
-0.9609309
-0.9508588
-0.9490993
-0.9466271
-0.9437114
-0.9468655
-0.9402442
-0.9403804
-0.9442138
-0.955295
-0.963107
-0.5191566
-0.6031336
-1.236393
-1.022982
-0.9302392
-0.9477053
-0.9620018
-0.9579493
-0.9598241
-0.9579821
-0.9537674
-0.9554327
-0.9483382
-0.9545528
-0.9462099
-0.9448342
-0.9423172
-0.9511944
-0.3086362
-1.142812
-1.083621
-1.000561
-0.9540277
-0.9741467
-0.9693941
-0.9661479
-0.9705593
-0.9609103
-0.9585349
-0.957652
-0.9516082
-0.9550663
-0.9584959
-0.9522561
-0.94752
-0.9431012
-0.01220317
-0.7261631
-1.053441
-0.8640354
-0.9100812
-1.02945
-0.9862802
-0.9736478
-0.9760319
-0.9570289
-0.9722545
-0.9579457
-0.9618437
-0.94861
-0.9613642
-0.9562882
-0.9518012
-0.9500428
-0.1966861
-1.116921
-0.9862837
-0.9376837
-0.9707955
-0.9246408
-0.9958108
-0.9834544
-0.9751454
-0.9538051
-0.9333919
-0.9443137
-0.9716151
-0.9932247
-0.9662409
-0.9603053
-0.9568752
-0.9604752
-0.3041006
-1.442443
-0.8561887
-0.7365373
-0.9350432
-0.985944
-0.9871521
-0.981653
-0.9731396
-0.962307
-0.9763008
-0.9658755
-0.9307415
-0.9439475
-0.9673433
-0.9619275
-0.9731381
-0.9601054
-0.3506414
-1.380644
-0.7387286
-1.245838
-1.007754
-0.9755577
-0.9779445
-0.9864214
-0.9934306
-0.9892179
-0.9921428
-0.9839245
-1.005413
-0.9654143
-0.9696382
-0.9892692
-0.9651572
-0.9737352
-0.3497067
-1.679796
-0.9384193
-0.6459664
-0.9833133
-0.9559673
-0.9792488
-0.9748012
-0.9693776
-0.9436324
-0.9545899
-0.9081411
-0.9432175
-0.9754201
-0.9882216
-0.9735056
-0.9846589
-0.9697618
-0.2167214
-2.06
-0.9695623
-1.05941
-0.9390867
-1.029782
-0.9707534
-0.9254369
-0.8823542
-0.9532877
-0.8592308
-1.041291
-0.9846361
-0.9797207
-0.9824343
-1.005662
-0.9846208
-0.9702093
-0.1594622
-1.856651
-1.39846
-0.6109468
-0.8295679
-1.002103
-0.9412235
-0.7792823
-0.8828695
-0.9120447
-0.9914365
-0.7159656
-0.9941125
-0.9724216
-0.9419834
-1.015582
-0.9822615
-0.9800084
-0.1172068
-1.923867
-2.145757
-1.025826
-1.154885
-0.9134561
-0.8685922
-0.6787548
-1.008013
-0.8549094
-0.892265
-0.9144129
-1.0393
-0.9398922
-1.03254
-0.9670216
-1.038677
-0.9879451
-0.1494022
-1.051067
-0.7630322
-1.514897
-0.7241166
-0.8916829
-0.7943761
-1.066599
-0.8927955
-1.117292
-0.8531721
-0.9157902
-0.9636307
-1.012456
-0.1715579
-2.591462
-0.9592359
-0.6709112
-0.8937384
-0.8327388
-0.7712976
-1.031176
-0.962912
-0.9795675
-0.1229729
-0.6354775
-0.5857665
-0.8340371
-1.358661
-1.001007
-0.9778462
-0.9936968
-1.117488
-1.239187
-0.8648133
-1.016375
-0.9847314
-1.001243
-0.7844118
-0.9615223
-0.9410112
-1.002958
-0.9677782
-0.5706276
-0.9471478
-0.9568495
-0.980229
-1.005174
-0.5532624
-0.7703418
-0.9808273
-0.979475
-0.9816504
-1.489869
-1.13415
-0.8849538
-0.9766456
-0.9817646
-0.8523441
-0.9090431
-0.9650325
-0.9850067
-0.9947278
-0.9800816
-0.9316988
-1.021993
-0.9536563
-0.9738842
-1.267153
-0.6856328
-0.8232787
-0.9862486
-0.9714928
-0.9690815
-0.1368481
-0.849813
-1.166296
-1.09263
-0.9661458
-1.006341
-0.974771
-0.1248683
-0.8164582
-0.8099129
-1.141974
-0.867361
-0.9270298
-0.9620876
-0.9379609
-0.9374901
-0.1455135
-1.874713
-2.496427
-1.321898
-1.155026
-1.035127
-0.9781902
-0.9131179
-0.9811282
-0.9602452
-0.9583558
-0.9768282
-0.1277329
-0.3505888
-1.47546
-0.9560428
-0.8073264
-0.7225584
-0.933301
-1.111575
-0.5205114
-0.9202943
-0.9562764
-0.7373088
-0.897742
-0.9663559
-0.8818433
-0.9724586
-0.9433306
-0.978894
-0.169168
-0.4516159
-0.9565333
-0.8511014
-0.7365367
-1.048693
-0.8527172
-0.9969496
-0.8833502
-0.9451355
-0.9404634
-0.970102
-0.8319582
-0.9621574
-0.9858911
-0.9424938
-0.992681
-0.9407048
-0.1744138
-0.813445
-0.8221115
-0.6707215
-0.8420359
-1.026141
-0.960624
-0.9855476
-0.9603498
-0.9451893
-1.00003
-0.9099865
-1.047076
-0.9727626
-0.9405369
-0.9497931
-0.9244963
-0.9846904
-0.12995
-1.148599
-1.285246
-0.8256753
-0.7118433
-0.9327557
-0.9262373
-0.9625049
-0.9746567
-0.9540589
-0.9385148
-0.936668
-0.9565685
-0.9365156
-0.995144
-0.9354433
-0.9760277
-0.9328243
-0.1556553
-1.475602
-0.8678862
-1.351277
-1.085133
-0.8815252
-0.9427487
-0.9526144
-0.9389852
-0.9591139
-0.9890722
-0.9032577
-0.9506365
-0.9707423
-0.9302993
-0.965338
-0.9445245
-0.981318
-0.1084361
-1.393149