/*--------------------------------*- C++ -*----------------------------------*\
| =========                 |                                                 |
| \\      /  F ield         | OpenFOAM: The Open Source CFD Toolbox           |
|  \\    /   O peration     | Version:  2206                                  |
|   \\  /    A nd           | Website:  www.openfoam.com                      |
|    \\/     M anipulation  |                                                 |
\*---------------------------------------------------------------------------*/
FoamFile
{
    version     2.0;
    format      ascii;
    arch        "LSB;label=32;scalar=64";
    class       volScalarField;
    location    "2.4";
    object      ddt0(alpha.a);
}
// * * * * * * * * * * * * * * * * * * * * * * * * * * * * * * * * * * * * * //

dimensions      [0 0 -1 0 0 0 0];

internalField   nonuniform List<scalar> 
13078
(
-0.1826053
-0.008987843
-0.001785468
-0.0004715145
-0.0001694961
-0.0001268762
-0.0001107062
-0.001284349
-0.00190833
-0.0006764321
-0.0002373159
-0.000144531
-0.0001226258
-0.0001076311
-0.001288228
-0.000722299
-0.0002627402
-0.0001478694
-0.0001251339
-0.0001097163
-9.954905e-05
-6.597124e-05
-0.000145762
-0.0001033275
-9.820052e-05
-9.552532e-05
-9.17344e-05
-8.795739e-05
0.0001523498
1.118314e-05
-3.612169e-05
-5.781033e-05
-6.67914e-05
-7.23002e-05
-7.529532e-05
0.0001432781
4.213196e-05
-6.434882e-07
-2.800824e-05
-4.585694e-05
-5.578182e-05
-6.308056e-05
0.0001143643
4.533296e-05
1.441554e-05
-1.13278e-05
-3.000498e-05
-4.415582e-05
-5.333751e-05
8.870823e-05
3.795299e-05
1.792987e-05
-4.187359e-06
-2.123438e-05
-3.544568e-05
-4.676091e-05
6.883954e-05
2.803352e-05
1.552782e-05
-2.219517e-06
-1.712161e-05
-3.060238e-05
-4.18031e-05
5.36229e-05
1.829064e-05
1.074002e-05
-3.371077e-06
-1.611705e-05
-2.835851e-05
-3.907943e-05
4.173941e-05
9.455e-06
5.10366e-06
-6.245676e-06
-1.706032e-05
-2.792628e-05
-3.79073e-05
3.19838e-05
1.5339e-06
-7.440644e-07
-1.001958e-05
-1.915617e-05
-2.879509e-05
-3.799641e-05
2.360533e-05
-5.697495e-06
-6.524563e-06
-1.417971e-05
-2.202635e-05
-3.061444e-05
-3.904749e-05
1.611009e-05
-1.235177e-05
-1.213628e-05
-1.879006e-05
-2.567105e-05
-3.311197e-05
-4.066776e-05
9.157067e-06
-1.853277e-05
-1.755364e-05
-2.297999e-05
-2.905982e-05
-3.574878e-05
-4.256282e-05
2.55591e-06
-2.455681e-05
-2.308385e-05
-2.774354e-05
-3.320543e-05
-3.870521e-05
-4.481946e-05
-3.935204e-06
-3.073255e-05
-2.880013e-05
-3.265218e-05
-3.733169e-05
-4.202909e-05
-4.751155e-05
-1.065271e-05
-3.714344e-05
-3.463409e-05
-3.774957e-05
-4.172259e-05
-4.572186e-05
-5.052503e-05
-1.774055e-05
-4.376533e-05
-4.066423e-05
-4.31509e-05
-4.678757e-05
-5.015545e-05
-5.381422e-05
-2.518384e-05
-5.063077e-05
-4.698327e-05
-4.887762e-05
-5.10676e-05
-5.386435e-05
-5.707072e-05
-3.304393e-05
-5.792376e-05
-5.378318e-05
-5.510577e-05
-5.653577e-05
-5.89947e-05
-6.074897e-05
-4.153139e-05
-6.587478e-05
-6.115393e-05
-6.173116e-05
-6.223333e-05
-6.404072e-05
-6.461191e-05
-5.085588e-05
-7.450936e-05
-6.905762e-05
-6.880992e-05
-6.849692e-05
-6.976021e-05
-6.914465e-05
-6.108078e-05
-8.376415e-05
-7.753455e-05
-7.643375e-05
-7.508145e-05
-7.388122e-05
-7.281304e-05
-7.214173e-05
-9.374887e-05
-8.667979e-05
-8.464617e-05
-8.233858e-05
-8.013528e-05
-7.920061e-05
-8.41318e-05
-0.0001045591
-9.647107e-05
-9.342181e-05
-9.025003e-05
-8.671e-05
-8.487017e-05
-9.721966e-05
-0.0001161348
-0.0001067764
-0.0001027221
-9.879916e-05
-9.436606e-05
-9.196374e-05
-0.0001111796
-0.0001279975
-0.00011741
-0.0001124393
-0.0001078059
-0.0001025835
-9.70035e-05
-0.0001260346
-0.0001402636
-0.0001279547
-0.0001220335
-0.0001170471
-0.0001124351
-0.0001069301
-0.000140684
-0.0001513443
-0.0001374653
-0.000130893
-0.0001260795
-0.0001223365
-0.0001180214
-0.0001558302
-0.0001629509
-0.0001462189
-0.0001379946
-0.0001339875
-0.0001323231
-0.0001304435
-0.0001696817
-0.0001701851
-0.0001508256
-0.0001428306
-0.0001392832
-0.0001407553
-0.0001443773
-0.0001821212
-0.0001762875
-0.0001513455
-0.000140197
-0.0001400155
-0.0001466545
-0.0001574666
-0.0001915354
-0.0001763685
-0.0001479141
-0.0001374733
-0.0001377875
-0.0001496268
-0.0001703822
-0.0001972075
-0.0001710122
-0.0001374118
-0.0001251702
-0.0001291341
-0.0001506918
-0.0001803732
-0.00019805
-0.0001634894
-0.0001293599
-0.000120108
-0.0001241947
-0.0001431309
-0.0001972733
-0.0001970968
-0.0001625118
-0.0001294171
-0.0001134326
-0.0001141577
-0.0001476582
-0.0002427706
-0.0002025346
-0.0001727438
-0.0001378653
-0.0001158154
-0.0001065486
-0.0001502844
-0.0002931655
-0.0002208468
-0.0001987146
-0.000162145
-0.0001279147
-0.0001146149
-0.0001580791
-0.0003448471
-0.0002549692
-0.0002402288
-0.0002087804
-0.0001661523
-0.0001598447
-0.0002254275
-0.0004088012
-0.0003158251
-0.000307575
-0.0002869529
-0.0002713731
-0.0003029841
-0.0004476056
-0.0007425666
-0.0004114431
-0.0004146852
-0.0004201103
-0.0004725881
-0.0006041873
-0.0008613895
-0.001415968
-0.0005299031
-0.0005490672
-0.0006323057
-0.0007718615
-0.001012635
-0.001485455
-0.002405244
-0.0006334331
-0.0006897394
-0.0008685124
-0.001153851
-0.001531578
-0.002262077
-0.003597119
-0.0007136942
-0.0008027161
-0.001073843
-0.001574373
-0.002166906
-0.00307926
-0.004782574
-0.0007844954
-0.0008868749
-0.001233669
-0.002037414
-0.00288422
-0.004032713
-0.005916856
-0.0008465335
-0.0009756803
-0.001460268
-0.002403244
-0.003618668
-0.005084369
-0.007210288
-0.0009166582
-0.00120919
-0.001815299
-0.002682
-0.004135756
-0.006073889
-0.008884288
-0.0009949158
-0.001549846
-0.002234417
-0.003184366
-0.00465076
-0.00687261
-0.01044216
-0.00118058
-0.001908521
-0.002692067
-0.003803477
-0.00559874
-0.008378568
-0.01204645
-0.001440634
-0.002150717
-0.00302004
-0.00457067
-0.006795985
-0.01000581
-0.01393292
-0.001827057
-0.002464702
-0.003327749
-0.005051557
-0.007652217
-0.01092945
-0.01480964
-0.002208619
-0.002843727
-0.004072464
-0.00593916
-0.008315133
-0.01080984
-0.01424119
-0.002519627
-0.003233878
-0.004689772
-0.00660002
-0.008613732
-0.01041466
-0.01235762
-0.002730595
-0.003459701
-0.004999489
-0.006752566
-0.008324973
-0.009539062
-0.01040431
-0.002946698
-0.003676511
-0.005198889
-0.00673821
-0.007980483
-0.00882508
-0.009063202
-0.003119633
-0.004032553
-0.005558153
-0.006995305
-0.008149193
-0.008988804
-0.009240628
-0.003052575
-0.004090328
-0.005558704
-0.006938785
-0.008148982
-0.009242008
-0.009991218
-0.002988431
-0.004076685
-0.005458289
-0.006807192
-0.008107761
-0.009475501
-0.01092867
-0.002956496
-0.00410347
-0.005402848
-0.006743346
-0.008129794
-0.009638292
-0.01163285
-0.002831091
-0.003987942
-0.005180053
-0.006658941
-0.008019357
-0.009456724
-0.01128521
-0.002639628
-0.003729083
-0.004611245
-0.005866871
-0.007343391
-0.009022978
-0.01081693
-0.002391942
-0.003305574
-0.004301957
-0.00550364
-0.007019923
-0.008839011
-0.01083017
-0.002193585
-0.002928985
-0.003895818
-0.005021928
-0.006502994
-0.00842699
-0.01096479
-0.00196111
-0.002452663
-0.003401465
-0.004437378
-0.005867653
-0.007628714
-0.01049852
-0.001744356
-0.002034965
-0.002785738
-0.003792994
-0.005023935
-0.006857569
-0.009681926
-0.001499263
-0.001755431
-0.002183778
-0.003149225
-0.004179784
-0.005734911
-0.008472151
-0.001232926
-0.001513315
-0.001776012
-0.002344939
-0.003278532
-0.004541639
-0.006793085
-0.001027972
-0.0012189
-0.001449753
-0.001711861
-0.002312173
-0.003408973
-0.004961822
-0.0008879219
-0.000988127
-0.001124319
-0.001315383
-0.001599284
-0.002251527
-0.003412596
-0.000767479
-0.0008448683
-0.0008931004
-0.0009865708
-0.001129042
-0.001404264
-0.00211561
-0.0006486391
-0.0007399924
-0.0007691099
-0.0007688507
-0.0008187209
-0.0009638855
-0.001212409
-0.0005450223
-0.00063407
-0.0006722141
-0.0006726604
-0.0006645152
-0.0006747592
-0.0008151035
-0.0004561892
-0.0005343245
-0.0005731389
-0.0005933259
-0.0005871686
-0.0005755978
-0.0005916607
-0.0003856197
-0.0004469935
-0.0004806945
-0.000505169
-0.0005154495
-0.0005179797
-0.0005137597
-0.0003330032
-0.0003755177
-0.0003990238
-0.0004221557
-0.0004401891
-0.0004550718
-0.0004555424
-0.0002877923
-0.0003243236
-0.0003348506
-0.0003512562
-0.0003688312
-0.0003811977
-0.0003880478
-0.0002490692
-0.0002822503
-0.0002886924
-0.0002984876
-0.0003097982
-0.0003179361
-0.0003216881
-0.0002159386
-0.0002471096
-0.0002508549
-0.0002605966
-0.000265759
-0.000269983
-0.000270157
-0.0001868084
-0.0002169015
-0.000219012
-0.0002252708
-0.0002295119
-0.0002320063
-0.0002301904
-0.0001616488
-0.0001907219
-0.0001928106
-0.0001980141
-0.0002007678
-0.0002017958
-0.0001992095
-0.0001397144
-0.0001691536
-0.0001696592
-0.0001735924
-0.0001763151
-0.0001766867
-0.0001731104
-0.0001206675
-0.0001492517
-0.0001492668
-0.0001529278
-0.0001553676
-0.0001550741
-0.0001516018
-0.0001041443
-0.0001325236
-0.0001317578
-0.000135144
-0.0001369714
-0.0001367173
-0.0001341328
-8.9241e-05
-0.0001173727
-0.0001163991
-0.0001194916
-0.0001211614
-0.0001208875
-0.0001179717
-7.635663e-05
-0.0001041304
-0.0001029065
-0.0001058079
-0.0001077927
-0.0001082253
-0.0001092029
-6.481617e-05
-9.238963e-05
-9.10241e-05
-9.39968e-05
-9.643462e-05
-9.746766e-05
-9.885908e-05
-5.445018e-05
-8.201428e-05
-8.058803e-05
-8.375227e-05
-8.639027e-05
-8.857909e-05
-9.066097e-05
-4.524261e-05
-7.2897e-05
-7.135076e-05
-7.487039e-05
-7.770933e-05
-7.985272e-05
-8.223065e-05
-3.706549e-05
-6.470842e-05
-6.323795e-05
-6.675199e-05
-7.013859e-05
-7.448856e-05
-7.726015e-05
-2.964906e-05
-5.71743e-05
-5.588202e-05
-5.975593e-05
-6.328924e-05
-6.780006e-05
-7.118675e-05
-2.282047e-05
-5.04929e-05
-4.916451e-05
-5.308929e-05
-5.733164e-05
-6.234453e-05
-6.616286e-05
-1.646372e-05
-4.425248e-05
-4.290587e-05
-4.720451e-05
-5.148923e-05
-5.653644e-05
-6.173473e-05
-1.054151e-05
-3.841633e-05
-3.722624e-05
-4.1832e-05
-4.735385e-05
-5.259537e-05
-5.790447e-05
-5.006493e-06
-3.281949e-05
-3.18439e-05
-3.679666e-05
-4.235109e-05
-4.799525e-05
-5.40403e-05
4.822532e-07
-2.755031e-05
-2.68411e-05
-3.19706e-05
-3.801936e-05
-4.414176e-05
-5.058035e-05
5.777985e-06
-2.241059e-05
-2.196383e-05
-2.753386e-05
-3.398899e-05
-4.044779e-05
-4.744574e-05
1.116119e-05
-1.735069e-05
-1.714159e-05
-2.308037e-05
-2.980181e-05
-3.714135e-05
-4.468608e-05
1.66994e-05
-1.215532e-05
-1.234161e-05
-1.929075e-05
-2.652977e-05
-3.426071e-05
-4.22754e-05
2.266742e-05
-6.652271e-06
-7.400749e-06
-1.491094e-05
-2.283895e-05
-3.149539e-05
-4.012859e-05
2.924012e-05
-7.04404e-07
-2.313469e-06
-1.09094e-05
-1.970725e-05
-2.917387e-05
-3.848017e-05
3.683115e-05
5.890988e-06
2.917527e-06
-7.050953e-06
-1.704555e-05
-2.747192e-05
-3.743709e-05
4.591853e-05
1.324914e-05
8.274671e-06
-3.531392e-06
-1.498392e-05
-2.648038e-05
-3.716849e-05
5.719007e-05
2.166439e-05
1.365354e-05
-8.181025e-07
-1.403128e-05
-2.678288e-05
-3.805107e-05
7.172678e-05
3.106547e-05
1.821378e-05
4.051002e-07
-1.492563e-05
-2.885908e-05
-4.075115e-05
9.096435e-05
4.068133e-05
2.035825e-05
-1.073247e-06
-1.887517e-05
-3.372671e-05
-4.470896e-05
0.0001160406
4.8158e-05
1.714685e-05
-8.357711e-06
-2.784709e-05
-4.117485e-05
-5.165845e-05
0.0001453906
4.568001e-05
3.544255e-06
-2.463616e-05
-4.131962e-05
-5.320055e-05
-6.141813e-05
0.0001555098
1.72029e-05
-3.150169e-05
-5.087701e-05
-6.312813e-05
-6.974445e-05
-7.288511e-05
-7.358931e-05
-0.0001342922
-9.08462e-05
-9.351794e-05
-9.149915e-05
-8.808746e-05
-8.548176e-05
-0.001396656
-0.0006968248
-0.0002601176
-0.0001423835
-0.0001193684
-0.0001060933
-9.74555e-05
-0.002837991
-0.002198859
-0.0005970642
-0.0002251315
-0.0001413168
-0.0001200287
-0.0001064235
-9.79058e-05
-8.258535e-05
-6.346968e-05
-4.565173e-05
-2.28158e-05
-5.959247e-06
-8.538953e-05
-9.566652e-05
-8.067406e-05
-6.221506e-05
-4.509592e-05
-2.163855e-05
-4.676465e-06
-0.0001012707
-9.055053e-05
-7.75067e-05
-5.860078e-05
-3.918693e-05
-2.076892e-05
-6.135866e-06
-0.0001067569
-8.324729e-05
-7.334181e-05
-5.847395e-05
-3.371377e-05
-2.270506e-05
-7.766132e-06
-0.0001165239
-7.480448e-05
-6.808065e-05
-5.507029e-05
-3.433511e-05
-2.272425e-05
-9.578907e-06
-0.000129821
-6.653142e-05
-6.265038e-05
-5.155067e-05
-3.154236e-05
-2.332211e-05
-1.207372e-05
-0.0001442922
-5.905418e-05
-5.783924e-05
-4.860161e-05
-2.9366e-05
-2.298924e-05
-1.535605e-05
-0.000163364
-5.349377e-05
-5.363362e-05
-4.611735e-05
-2.753385e-05
-2.352198e-05
-1.899242e-05
-0.0001857256
-4.983194e-05
-5.064294e-05
-4.390359e-05
-2.682791e-05
-2.449522e-05
-2.260456e-05
-0.0002105
-4.694576e-05
-4.879007e-05
-4.277924e-05
-2.643137e-05
-2.561131e-05
-2.615137e-05
-0.0002367647
-4.555651e-05
-4.748526e-05
-4.232431e-05
-2.638696e-05
-2.684152e-05
-2.951629e-05
-0.0002642341
-4.528868e-05
-4.71789e-05
-4.213955e-05
-2.726439e-05
-2.814931e-05
-3.271315e-05
-0.0002927873
-4.580437e-05
-4.740652e-05
-4.244154e-05
-2.78479e-05
-2.946948e-05
-3.564386e-05
-0.0003219142
-4.677962e-05
-4.8034e-05
-4.290861e-05
-2.843064e-05
-3.069305e-05
-3.882425e-05
-0.0003491856
-4.806274e-05
-4.89881e-05
-4.360944e-05
-2.906526e-05
-3.172181e-05
-4.121543e-05
-0.0003632452
-4.972298e-05
-5.024451e-05
-4.455207e-05
-2.972975e-05
-3.261541e-05
-4.348877e-05
-0.0003934539
-5.18181e-05
-5.177569e-05
-4.564504e-05
-3.048082e-05
-3.455122e-05
-4.578714e-05
-0.0004193626
-5.417706e-05
-5.352356e-05
-4.698084e-05
-3.125653e-05
-3.636873e-05
-4.794815e-05
-0.0004443317
-5.669613e-05
-5.545043e-05
-4.85146e-05
-3.195235e-05
-3.758338e-05
-5.028495e-05
-0.0004691497
-5.940189e-05
-5.754744e-05
-5.018606e-05
-3.258726e-05
-3.8949e-05
-5.282888e-05
-0.0004947237
-6.228604e-05
-5.976885e-05
-5.191733e-05
-3.332341e-05
-4.054594e-05
-5.568976e-05
-0.0005211897
-6.522772e-05
-6.205723e-05
-5.375102e-05
-3.386114e-05
-4.221864e-05
-5.886101e-05
-0.0005493816
-6.835459e-05
-6.417776e-05
-5.527753e-05
-3.59252e-05
-4.409634e-05
-6.221638e-05
-0.0005788711
-7.11996e-05
-6.589724e-05
-5.529132e-05
-4.60444e-05
-2.91531e-05
-6.321875e-05
-0.0006092786
-7.462861e-05
-6.832773e-05
-5.754483e-05
-3.833455e-05
-4.061764e-05
-6.333574e-05
-0.0006366477
-7.839038e-05
-7.080023e-05
-5.850189e-05
-3.016758e-05
-3.940678e-05
-6.525008e-05
-0.0006645759
-8.361746e-05
-7.345039e-05
-5.893709e-05
-2.655085e-05
-3.698268e-05
-6.852758e-05
-0.00069395
-8.859953e-05
-7.539811e-05
-6.006962e-05
-2.192409e-05
-3.212596e-05
-6.934193e-05
-0.0007191292
-0.0001030365
-7.54698e-05
-7.356338e-05
-3.966116e-05
-2.670801e-05
-7.03706e-05
-0.0007419463
-0.0001168885
-7.716509e-05
-7.057359e-05
-3.720803e-05
-1.859717e-05
-7.257344e-05
-0.0007644307
-0.0001257234
-9.553464e-05
-8.06459e-05
-3.932894e-05
-1.52184e-05
-5.789759e-05
-0.0007537937
-0.0001460782
-0.0001173384
-9.65401e-05
-4.655063e-05
-1.79898e-05
-5.592007e-05
-0.0007347284
-0.0001697818
-0.000131067
-0.0001169656
-6.322663e-05
-3.15649e-05
-4.098957e-05
-0.0006804392
-0.0001970405
-0.0001630903
-0.0001661755
-0.000120671
-6.252361e-05
-1.78678e-05
-0.0004007635
-0.0002347066
-0.000221971
-0.0002933052
-0.0002363867
-0.0001036017
9.997638e-06
-0.0003861017
-0.00033383
-0.0003690442
-0.0005006231
-0.0004109839
-0.0001280448
4.949014e-05
0.0001969293
-0.0004896433
-0.0005927969
-0.0007749718
-0.0004866203
5.786318e-05
0.0002428856
-0.0006273438
-0.0006073926
-0.0007474427
-0.0007769989
-0.0001104629
0.00082889
0.001569052
0.002523978
-0.0006612306
-0.0006766588
-0.0005587285
0.0004805613
0.002019983
0.003835741
0.004156403
-0.0007896279
-0.0006216523
-0.0007375664
0.00039067
0.001749437
0.002757869
0.001886885
-0.001488931
-0.001500583
-0.002089168
-0.0003587915
0.001617532
0.002353349
0.002066437
-0.002653724
-0.003449196
-0.003277757
-0.0005732602
0.001959208
0.003628227
0.003323035
-0.004363238
-0.005069568
-0.004413312
-0.000963203
0.00186799
0.005522098
0.006941475
-0.005876508
-0.007204152
-0.005305364
-0.001657934
0.00123348
0.007655984
0.01409635
-0.007343735
-0.008673361
-0.006514273
-0.001039617
0.001398619
0.01167654
0.01880227
-0.008716725
-0.01037266
-0.006909106
-0.001775102
0.00716718
0.01463132
0.01545747
-0.01021476
-0.01113682
-0.007509493
-0.0002918145
0.01410006
0.0118786
0.000556271
-0.01172034
-0.01270517
-0.008219776
0.001190409
0.01963013
0.01049296
-0.02331987
-0.01398814
-0.01365889
-0.008952153
0.0017963
0.02642685
0.01661131
-0.006460778
-0.01603122
-0.01626692
-0.008683588
0.005879839
0.03331975
0.01838577
0.01003271
-0.01805321
-0.01765641
-0.006370715
0.01251968
0.03748877
0.02128437
0.01593043
-0.01917685
-0.01959566
-0.006005472
0.02107914
0.0428452
0.02107751
0.01251562
-0.01850718
-0.02137678
-0.004025695
0.02919434
0.03551331
0.01888338
0.01770294
-0.0142622
-0.01476022
0.0003510947
0.02919652
0.02722576
0.01885882
0.02882454
-0.01011911
-0.007747684
0.005400881
0.0156044
0.01606987
0.01694168
0.09994023
-0.007827138
-0.004680129
0.003961635
0.007272332
0.01041953
0.06758143
-0.007840475
-0.003710869
0.003844839
0.007946528
0.02018182
0.07283842
-0.008966445
-0.004400395
0.005835331
0.01655567
0.02917246
0.04937514
-0.01100944
-0.006998241
0.005928525
0.02220371
0.02630184
0.01972511
0.02956274
-0.01264457
-0.0100866
0.003204331
0.02200163
0.02468875
0.0206761
-0.002966545
-0.01284438
-0.01176728
0.0006609738
0.02525459
0.02836924
0.02846553
-0.01065761
-0.01223546
-0.0114921
6.243471e-05
0.03656657
0.03518154
0.0248051
-0.01107547
-0.01246643
-0.01121824
0.002197358
0.04312552
0.02976939
0.02002357
0.004052605
-0.01293096
-0.01228656
-0.001115636
0.04391385
0.02340843
0.01142994
-0.007610327
-0.01328783
-0.01323132
-0.004140772
0.04576081
0.03368454
-0.003369891
-0.04854561
-0.01319355
-0.0136091
-0.005940115
0.03793679
0.03937624
-0.007443118
-0.04573075
-0.01218201
-0.01369958
-0.006254377
0.02353249
0.03411314
0.004600408
-0.008844076
-0.01017365
-0.01255881
-0.005820836
0.0170293
0.01847411
0.009543816
-0.003304217
-0.007967967
-0.01049043
-0.004810584
0.01146115
0.01536994
0.006983253
-0.0002105112
-0.005428377
-0.007801572
-0.00448776
0.007052602
0.01800173
0.008087173
0.008631708
-0.00346985
-0.005304863
-0.003973049
0.002889784
0.01772172
0.009969184
0.01092399
-0.001998889
-0.003265545
-0.002964856
-0.0002600883
0.01223474
0.01037264
0.006251913
-0.001150483
-0.00180848
-0.001902407
-0.001137934
0.002020072
0.006580832
-0.001162316
-0.0007111509
-0.001098335
-0.001133275
-0.0007207599
-0.0005974939
-0.0004729705
-0.006436277
-0.0005173868
-0.0006016559
-0.0006429345
-0.0004835905
-0.0001826925
-0.0003477884
-0.002297464
-0.0004547827
-0.0004728136
-0.0003980795
-0.0003216141
-0.0002196937
-0.000233327
-0.001256703
-0.0003881344
-0.0004119325
-0.0003279999
-0.0002542469
-0.0002235831
-0.0002780806
-0.0008423947
-0.0003199238
-0.0003403932
-0.0002706905
-0.0002165282
-0.0001858574
-0.0002092227
-0.001137634
-0.0002649481
-0.0002814922
-0.0002292129
-0.0001749336
-0.0001465259
-0.0001770471
-0.0009317869
-0.000224292
-0.0002364981
-0.0001813431
-0.0001409896
-0.0001147076
-0.0001389838
-0.0007149668
-0.0001926464
-0.0002025274
-0.0001516701
-0.0001166528
-9.301577e-05
-0.0001210151
-0.0008365871
-0.0001638867
-0.0001862496
-0.0001331525
-9.940026e-05
-7.982138e-05
-0.0001214568
-0.000806475
-0.0001498035
-0.0001598262
-0.0001158585
-8.672589e-05
-7.162117e-05
-0.0001145272
-0.0008186924
-0.000130618
-0.0001371674
-0.00010165
-7.722995e-05
-6.675298e-05
-0.000103456
-0.0007921508
-0.0001122991
-0.0001002557
-8.651935e-05
-9.096204e-05
-6.473296e-05
-9.913173e-05
-0.0007683475
-0.0001043727
-9.538671e-05
-8.289438e-05
-8.732957e-05
-6.253777e-05
-9.171956e-05
-0.0007481216
-9.541966e-05
-8.999156e-05
-7.916553e-05
-8.325507e-05
-6.176618e-05
-8.816755e-05
-0.0007267101
-8.907701e-05
-8.507646e-05
-7.547961e-05
-7.928073e-05
-6.0526e-05
-8.540903e-05
-0.0007025947
-8.352521e-05
-8.059424e-05
-7.197856e-05
-7.48065e-05
-6.020881e-05
-8.163058e-05
-0.0006761252
-7.870518e-05
-7.630722e-05
-6.833454e-05
-7.078357e-05
-5.580333e-05
-7.889757e-05
-0.0006523244
-7.384003e-05
-7.218805e-05
-6.482594e-05
-6.71622e-05
-5.585452e-05
-7.535122e-05
-0.0006268935
-6.957599e-05
-6.851601e-05
-6.177553e-05
-6.344813e-05
-5.305644e-05
-7.170069e-05
-0.0006018397
-6.568723e-05
-6.509933e-05
-5.87799e-05
-6.040131e-05
-5.05818e-05
-6.81998e-05
-0.0005759467
-6.207232e-05
-6.199251e-05
-5.622694e-05
-5.744844e-05
-4.834184e-05
-6.505415e-05
-0.0005517858
-5.872482e-05
-5.925502e-05
-5.383991e-05
-5.505905e-05
-4.640927e-05
-6.204732e-05
-0.0005284419
-5.585193e-05
-5.683691e-05
-5.177636e-05
-5.263144e-05
-3.988841e-05
-5.931816e-05
-0.0005041771
-5.32959e-05
-5.464157e-05
-4.990516e-05
-5.061994e-05
-4.141438e-05
-5.648381e-05
-0.0004798523
-5.103892e-05
-5.271531e-05
-4.816001e-05
-4.897549e-05
-3.966313e-05
-5.36351e-05
-0.0004501972
-4.899321e-05
-5.100585e-05
-4.668343e-05
-4.763037e-05
-3.794982e-05
-5.051157e-05
-0.0004485096
-4.733263e-05
-4.967243e-05
-4.538347e-05
-4.64368e-05
-3.611063e-05
-4.714105e-05
-0.0004022866
-4.612071e-05
-4.859263e-05
-4.433825e-05
-4.519038e-05
-3.439827e-05
-4.329537e-05
-0.000371974
-4.545247e-05
-4.797645e-05
-4.361998e-05
-4.486215e-05
-3.221232e-05
-3.996102e-05
-0.0003410133
-4.548704e-05
-4.820165e-05
-4.320261e-05
-4.380372e-05
-3.050721e-05
-3.627963e-05
-0.0003102359
-4.673667e-05
-4.867632e-05
-4.33735e-05
-4.419568e-05
-2.872364e-05
-3.236636e-05
-0.0002799395
-4.858596e-05
-5.025227e-05
-4.448516e-05
-4.456454e-05
-2.708493e-05
-2.82946e-05
-0.0002502363
-5.23556e-05
-5.316124e-05
-4.588129e-05
-4.528523e-05
-2.496789e-05
-2.423154e-05
-0.0002216359
-5.79966e-05
-5.686543e-05
-4.803552e-05
-4.636027e-05
-2.462594e-05
-1.99163e-05
-0.0001949126
-6.50102e-05
-6.148945e-05
-5.070969e-05
-4.772502e-05
-2.426535e-05
-1.589914e-05
-0.0001707126
-7.304853e-05
-6.684834e-05
-5.399511e-05
-4.884018e-05
-2.336797e-05
-1.235485e-05
-0.0001505352
-8.167164e-05
-7.238102e-05
-5.733631e-05
-4.934907e-05
-2.280346e-05
-9.628881e-06
-0.0001366229
-8.957426e-05
-7.743319e-05
-6.040805e-05
-4.899883e-05
-2.240757e-05
-7.490568e-06
-0.0001239435
-9.514464e-05
-8.058342e-05
-6.193639e-05
-4.785781e-05
-2.238088e-05
-6.293031e-06
-0.0001396223
-0.005422887
-3.347884e-11
-6.907597e-17
-2.311808e-22
2.411509e-28
2.423871e-33
-1.339485e-39
-4.921697e-45
2.329783e-50
1.351225e-54
2.428268e-59
3.160761e-64
2.87321e-69
1.775494e-74
9.468349e-80
8.383364e-85
5.780637e-90
2.909025e-95
-0.005885703
-1.86024e-11
-2.392181e-17
-1.373783e-23
-9.271902e-30
-5.337655e-35
-5.550912e-40
-4.821089e-45
5.10501e-50
2.164722e-54
2.513005e-59
1.856602e-64
8.848941e-70
2.917871e-75
9.274293e-81
6.155649e-86
2.800427e-91
8.817617e-97
-0.00529972
-5.434228e-10
-6.323364e-17
-4.128311e-23
-2.365991e-29
-1.114163e-34
-1.05844e-39
-9.551146e-45
5.5289e-50
2.400705e-54
2.313649e-59
1.220765e-64
4.056762e-70
8.864025e-76
1.77789e-81
1.082729e-86
4.552555e-92
1.248224e-97
-0.005457355
-4.594443e-09
-1.929147e-16
-1.070202e-22
-6.134799e-29
-2.328237e-34
-2.061329e-39
-1.949538e-44
4.341883e-50
2.52595e-54
1.888177e-59
6.988153e-65
1.519169e-70
2.034129e-76
2.530234e-82
1.431219e-87
4.954932e-93
1.076472e-98
-0.00576918
-1.054825e-08
-7.878417e-16
-2.911666e-22
-1.57591e-28
-4.954061e-34
-4.142959e-39
-4.515691e-44
-2.916509e-50
2.171902e-54
1.137765e-59
2.29828e-65
1.162043e-71
-3.24586e-77
-2.041421e-82
1.18328e-88
6.661611e-94
1.646045e-99
-0.006225579
-2.262652e-08
-3.465679e-15
-9.499265e-22
-4.123337e-28
-1.098337e-33
-8.313448e-39
-9.4274e-44
-2.357039e-49
3.760209e-55
-2.119727e-60
-2.669547e-65
-7.867898e-71
-1.283373e-76
-1.229703e-82
-2.120147e-89
3.142539e-94
5.305802e-100
-0.006763175
-3.456531e-08
-8.361349e-15
-2.810132e-21
-1.280839e-27
-2.862334e-33
-1.872072e-38
-2.173106e-43
-8.605065e-49
-4.725559e-54
-2.742143e-59
-8.351256e-65
-1.329904e-70
-1.122131e-76
-7.311652e-83
-7.079767e-89
-8.193298e-95
-1.516248e-100
-0.007369882
-5.285546e-08
-1.328399e-14
-6.798596e-21
-4.912233e-27
-9.118548e-33
-4.696225e-38
-4.809813e-43
-2.912527e-48
-1.844689e-53
-7.291707e-59
-1.063166e-64
-1.057476e-70
-8.116937e-77
-5.282294e-83
-1.068023e-88
-2.411633e-94
-3.224484e-100
-0.008025165
-7.454108e-08
-2.465696e-14
-2.002894e-20
-1.647334e-26
-2.820011e-32
-1.197951e-37
-1.17218e-42
-8.212948e-48
-4.596977e-53
-9.010344e-59
-1.127793e-64
-1.121052e-70
-9.060801e-77
-5.591695e-83
-1.368663e-88
-2.344262e-94
-1.909831e-100
-0.008743223
-1.103584e-07
-4.28063e-14
-4.649847e-20
-3.708215e-26
-6.877e-32
-2.807118e-37
-3.590896e-43
-1.457116e-47
-5.846686e-53
-1.111766e-58
-1.53776e-64
-1.614562e-70
-1.248914e-76
-7.293568e-83
-1.517036e-88
-2.451356e-94
-1.855117e-100
-0.009508955
-1.911808e-07
-6.78311e-14
-5.838081e-20
-6.348063e-26
-1.393672e-31
-6.591838e-37
-5.777306e-42
-4.230569e-47
-1.154081e-52
-2.040242e-58
-2.771081e-64
-2.82509e-70
-2.098953e-76
-1.120213e-82
-3.041966e-88
-4.349949e-94
-2.674195e-100
-0.01036898
-2.14458e-07
-7.735154e-14
-8.060516e-20
-9.705799e-26
-2.639694e-31
-1.493369e-36
-1.381094e-41
-1.212736e-46
-3.594411e-52
-5.409295e-58
-6.938033e-64
-7.36406e-70
-5.368134e-76
-2.059701e-82
-1.133916e-87
-1.246021e-93
-5.716916e-100
-0.0113142
-1.282787e-07
-6.344601e-14
-8.15601e-20
-1.311236e-25
-4.47508e-31
-2.696827e-36
-2.585462e-41
-2.225729e-46
-8.566768e-52
-1.74561e-57
-2.527598e-63
-2.725986e-69
-2.222223e-75
-1.737572e-81
-3.028681e-87
-2.72987e-93
-1.494113e-99
-0.01213922
-1.593229e-07
-5.799903e-14
-9.049746e-20
-1.882539e-25
-7.644663e-31
-4.570169e-36
-3.559017e-41
-2.748017e-46
-8.507003e-52
-1.622021e-57
-2.429958e-63
-2.927032e-69
-2.733015e-75
-2.206961e-81
-5.82346e-87
-5.021722e-93
-2.934299e-99
-0.0127177
-1.895631e-07
-3.931275e-16
-1.25663e-19
-3.078418e-25
-1.516505e-30
-1.053724e-35
-5.002249e-41
-3.26825e-46
-7.867565e-52
-1.308593e-57
-2.061276e-63
-2.539567e-69
-2.520917e-75
-2.355198e-81
-8.713488e-87
-7.094891e-93
-4.851615e-99
-0.0135571
-2.443248e-08
-1.251333e-12
-8.156254e-20
-5.270938e-25
-2.848531e-30
-2.356987e-35
-2.110645e-40
-1.008083e-45
-2.046807e-51
-3.237691e-57
-4.639169e-63
-5.356867e-69
-5.149814e-75
1.356028e-81
-4.310467e-87
-1.395787e-92
-1.063636e-98
-0.01459538
-1.223407e-06
1.515946e-13
-7.767913e-19
-1.029795e-24
-4.255021e-30
-4.374541e-35
-4.689225e-40
-3.101627e-45
-6.599754e-51
-1.080632e-56
-1.436498e-62
-1.490737e-68
-1.299553e-74
7.644732e-80
1.357059e-85
-2.887718e-92
-2.258753e-98
-0.01552836
-1.5798e-06
-3.61387e-12
4.654023e-19
-2.681862e-24
-7.209968e-30
-6.726466e-35
-8.399834e-40
-6.163918e-45
-1.973447e-50
-3.957064e-56
-5.387533e-62
-5.255389e-68
-4.171267e-74
6.354304e-79
4.381144e-85
-8.904155e-92
-1.024032e-97
-0.01648233
-2.035291e-06
-5.214276e-12
-1.05065e-17
1.583865e-24
-1.960283e-29
-9.333167e-35
-1.104172e-39
-9.204334e-45
-3.769417e-50
-9.876133e-56
-1.637328e-61
-1.719001e-67
-1.352314e-73
1.782822e-78
-6.131536e-84
-3.741732e-91
-4.346449e-97
-0.01749589
-2.637024e-06
-7.75575e-12
-1.720029e-17
-6.631141e-23
-1.079271e-29
-1.586906e-34
-1.186034e-39
-1.119778e-44
-5.518883e-50
-2.060203e-55
-4.634118e-61
-6.0958e-67
-5.178934e-73
7.12861e-78
1.470332e-84
-8.369129e-91
-2.883161e-97
-0.018593
-3.365294e-06
-1.144403e-11
-2.821635e-17
-1.209787e-22
-4.672446e-28
-5.165099e-35
-1.722757e-39
-1.174338e-44
-1.192135e-49
-5.15696e-55
-1.42554e-60
-2.58061e-66
-2.820625e-72
1.444522e-76
5.40911e-84
-7.326467e-90
-6.559802e-96
-0.01976435
-4.21598e-06
-1.665004e-11
-4.599742e-17
-2.292357e-22
-9.923921e-28
-3.918806e-33
-7.694539e-40
-1.39447e-44
-1.394909e-49
-1.309987e-54
-4.107097e-60
-1.079348e-65
-1.65058e-71
1.916609e-75
1.789215e-82
-7.780971e-89
-5.562438e-95
-0.02100514
-5.313649e-06
-2.446485e-11
-7.625376e-17
-4.29769e-22
-2.000977e-27
-8.874759e-33
-5.479121e-38
3.751171e-45
-7.99374e-50
-1.743189e-54
-9.418623e-60
-3.890421e-65
-9.748723e-71
2.400925e-74
1.564659e-81
-6.843328e-88
6.99517e-94
-0.02231594
-6.726458e-06
-3.583358e-11
-1.255864e-16
-7.921452e-22
-3.859903e-27
-1.980185e-32
-1.305343e-37
-5.679586e-43
-2.321452e-50
-9.129695e-55
-2.665529e-59
-1.540696e-64
-4.004888e-70
1.490408e-73
4.470174e-81
-3.902488e-87
3.574948e-92
-0.02369595
-8.382413e-06
-5.1939e-11
-2.035622e-16
-1.453109e-21
-8.888036e-27
-4.396665e-32
-3.139172e-37
-1.371265e-42
-5.901637e-48
1.180469e-57
-4.192988e-59
-1.823355e-64
3.733659e-69
-2.597737e-73
-9.87088e-80
1.971151e-87
9.562602e-91
-0.02515885
-1.050228e-05
-7.56602e-11
-3.322615e-16
-2.65975e-21
-1.696142e-26
-9.640715e-32
-7.570039e-37
-3.423213e-42
-1.585568e-47
-8.703412e-53
-1.173648e-62
-1.193854e-64
6.623779e-68
-5.003134e-72
-8.106226e-80
1.904563e-85
1.954554e-89
-0.02670817
-1.31506e-05
-1.101811e-10
-5.44516e-16
-4.905091e-21
-3.195063e-26
-1.951745e-31
-1.733092e-36
-8.408012e-42
-4.565473e-47
-2.668876e-52
-1.590631e-57
-1.295252e-68
2.070009e-67
-9.047538e-73
-1.415654e-78
2.570398e-84
3.335987e-88
-0.02833986
-1.647315e-05
-1.609754e-10
-8.987147e-16
-9.415226e-21
-4.995303e-26
-4.710205e-31
-3.765399e-36
-1.929635e-41
-1.367885e-46
-8.914137e-52
-5.195973e-57
-3.177778e-62
-2.652355e-66
-1.05712e-72
-6.668546e-78
5.569604e-83
5.334323e-87
-0.03003656
-2.052741e-05
-2.332185e-10
-1.67705e-15
-1.776647e-20
-1.929374e-25
-1.458407e-30
-1.508901e-35
-1.557203e-41
-3.972547e-46
-3.475934e-51
-1.990017e-56
-7.591774e-62
-1.789455e-65
4.239505e-75
2.883373e-78
1.971826e-81
5.482869e-86
-0.03181547
-2.524886e-05
-3.141993e-10
-2.191977e-15
-3.359719e-20
-3.740261e-25
-2.501589e-30
-2.298517e-35
2.670418e-40
-1.180189e-45
-1.330553e-50
-7.775735e-56
-1.064515e-61
3.809254e-65
-1.256952e-72
1.750304e-75
1.642318e-79
2.264945e-84
-0.03368315
-3.069986e-05
-3.588777e-10
-1.878959e-15
-1.067647e-19
-4.60144e-25
-4.226783e-30
-3.37712e-35
-2.228052e-39
-2.30561e-45
-2.244364e-50
-1.802956e-55
3.951018e-60
6.137034e-64
1.112606e-69
3.127194e-73
2.983374e-77
2.943521e-83
-0.03562408
-3.239727e-05
-3.55555e-10
-2.23574e-15
-1.489277e-20
-3.86541e-25
-5.222632e-30
-6.381104e-35
-1.422858e-39
-2.793186e-45
-3.8128e-50
-2.86376e-55
7.274719e-59
3.268131e-63
2.1943e-67
5.889451e-71
6.339325e-75
5.935447e-84
-0.03743273
-3.635428e-05
-4.917366e-10
-4.293807e-15
-6.881727e-20
-1.49596e-24
-9.508692e-30
-1.499193e-34
-7.765032e-40
-1.871739e-44
-2.693757e-49
-5.270616e-55
1.544052e-57
1.764631e-61
3.56298e-65
1.047569e-68
1.197669e-72
8.641432e-80
-0.03727478
-9.997647e-05