/*--------------------------------*- C++ -*----------------------------------*\
| =========                 |                                                 |
| \\      /  F ield         | OpenFOAM: The Open Source CFD Toolbox           |
|  \\    /   O peration     | Version:  2206                                  |
|   \\  /    A nd           | Website:  www.openfoam.com                      |
|    \\/     M anipulation  |                                                 |
\*---------------------------------------------------------------------------*/
FoamFile
{
    version     2.0;
    format      ascii;
    arch        "LSB;label=32;scalar=64";
    class       volScalarField;
    location    "2.4";
    object      ddt0(k.b);
}
// * * * * * * * * * * * * * * * * * * * * * * * * * * * * * * * * * * * * * //

dimensions      [0 2 -3 0 0 0 0];

internalField   nonuniform List<scalar> 
13078
(
-1.349199e-13
-5.103108e-11
-5.629663e-11
-5.648853e-11
-5.69027e-11
-5.737426e-11
-5.792232e-11
-7.078384e-15
-4.529705e-11
-5.609923e-11
-5.647126e-11
-5.688842e-11
-5.736257e-11
-5.791034e-11
3.712732e-14
-4.488612e-11
-5.606316e-11
-5.644627e-11
-5.686911e-11
-5.734776e-11
-5.789654e-11
1.616723e-14
-4.49325e-11
-5.60449e-11
-5.642593e-11
-5.685181e-11
-5.733293e-11
-5.788227e-11
-1.291853e-14
-4.494648e-11
-5.603407e-11
-5.641761e-11
-5.683799e-11
-5.731908e-11
-5.78684e-11
-4.446461e-14
-4.495572e-11
-5.602933e-11
-5.641302e-11
-5.683309e-11
-5.730724e-11
-5.785509e-11
-7.768103e-14
-4.495082e-11
-5.602597e-11
-5.640892e-11
-5.682989e-11
-5.730364e-11
-5.784325e-11
-1.211445e-13
-4.493663e-11
-5.602301e-11
-5.640643e-11
-5.682792e-11
-5.730132e-11
-5.784013e-11
-1.825875e-13
-4.492351e-11
-5.602212e-11
-5.640569e-11
-5.682671e-11
-5.729954e-11
-5.783794e-11
-2.586419e-13
-4.490487e-11
-5.602126e-11
-5.640522e-11
-5.682577e-11
-5.72981e-11
-5.783608e-11
-3.479886e-13
-4.488246e-11
-5.602024e-11
-5.64048e-11
-5.682494e-11
-5.729681e-11
-5.78343e-11
-4.546565e-13
-4.485693e-11
-5.601899e-11
-5.640435e-11
-5.682415e-11
-5.729557e-11
-5.783263e-11
-5.85206e-13
-4.482895e-11
-5.601755e-11
-5.640379e-11
-5.682336e-11
-5.729436e-11
-5.783095e-11
-7.495651e-13
-4.479852e-11
-5.601585e-11
-5.640301e-11
-5.682228e-11
-5.729304e-11
-5.782917e-11
-9.558542e-13
-4.476593e-11
-5.601381e-11
-5.640014e-11
-5.681797e-11
-5.729134e-11
-5.782737e-11
-1.214109e-12
-4.47312e-11
-5.601141e-11
-5.639647e-11
-5.681438e-11
-5.728969e-11
-5.782543e-11
-1.538887e-12
-4.469461e-11
-5.600898e-11
-5.639523e-11
-5.681295e-11
-5.72881e-11
-5.78234e-11
-1.949047e-12
-4.465601e-11
-5.600626e-11
-5.639402e-11
-5.681151e-11
-5.728641e-11
-5.782124e-11
-2.468634e-12
-4.461517e-11
-5.60032e-11
-5.639275e-11
-5.680983e-11
-5.728425e-11
-5.781894e-11
-3.128351e-12
-4.457227e-11
-5.599976e-11
-5.63911e-11
-5.680479e-11
-5.727711e-11
-5.781602e-11
-3.967309e-12
-4.452707e-11
-5.599596e-11
-5.638927e-11
-5.679859e-11
-5.727106e-11
-5.781299e-11
-5.035457e-12
-4.447959e-11
-5.59918e-11
-5.63876e-11
-5.679614e-11
-5.726834e-11
-5.781013e-11
-6.396317e-12
-4.442959e-11
-5.598711e-11
-5.638571e-11
-5.679387e-11
-5.726527e-11
-5.780652e-11
-8.130427e-12
-4.437705e-11
-5.598195e-11
-5.638368e-11
-5.6791e-11
-5.725744e-11
-5.779542e-11
-1.033939e-11
-4.432176e-11
-5.597627e-11
-5.638146e-11
-5.678787e-11
-5.724783e-11
-5.778593e-11
-1.315063e-11
-4.426353e-11
-5.596989e-11
-5.6379e-11
-5.678486e-11
-5.724351e-11
-5.778107e-11
-1.672268e-11
-4.420314e-11
-5.596286e-11
-5.637634e-11
-5.67816e-11
-5.723931e-11
-5.777572e-11
-2.125073e-11
-4.413308e-11
-5.595493e-11
-5.637346e-11
-5.677796e-11
-5.723431e-11
-5.776322e-11
-2.697358e-11
-4.407043e-11
-5.594633e-11
-5.637032e-11
-5.677396e-11
-5.722865e-11
-5.774789e-11
-3.418783e-11
-4.389326e-11
-5.593478e-11
-5.636685e-11
-5.676967e-11
-5.722314e-11
-5.774018e-11
-4.331352e-11
-4.370764e-11
-5.592486e-11
-5.636311e-11
-5.676494e-11
-5.721696e-11
-5.773165e-11
-5.462912e-11
-4.339567e-11
-5.591786e-11
-5.635851e-11
-5.675979e-11
-5.721011e-11
-5.772207e-11
-6.860547e-11
-4.299264e-11
-5.588899e-11
-5.635011e-11
-5.675358e-11
-5.720244e-11
-5.771229e-11
-8.56492e-11
-4.285231e-11
-5.586757e-11
-5.634164e-11
-5.674623e-11
-5.719351e-11
-5.770104e-11
-1.062175e-10
-4.270114e-11
-5.585036e-11
-5.633196e-11
-5.673135e-11
-5.718183e-11
-5.768819e-11
-1.306986e-10
-4.253208e-11
-5.583081e-11
-5.631874e-11
-5.671324e-11
-5.716201e-11
-5.767482e-11
-1.593766e-10
-4.234329e-11
-5.581041e-11
-5.631042e-11
-5.67002e-11
-5.714804e-11
-5.766545e-11
-1.923369e-10
-4.212857e-11
-5.579151e-11
-5.630774e-11
-5.670016e-11
-5.714137e-11
-5.765224e-11
-2.292625e-10
-4.188065e-11
-5.577692e-11
-5.631038e-11
-5.670627e-11
-5.71449e-11
-5.764334e-11
-2.694648e-10
-4.143936e-11
-5.576451e-11
-5.631053e-11
-5.670339e-11
-5.714019e-11
-5.763258e-11
-3.124117e-10
-4.073998e-11
-5.575321e-11
-5.628139e-11
-5.666531e-11
-5.709613e-11
-5.760245e-11
-3.567682e-10
-4.002577e-11
-5.566445e-11
-5.617877e-11
-5.655876e-11
-5.698569e-11
-5.74877e-11
-3.998731e-10
-3.968695e-11
-5.554493e-11
-5.602237e-11
-5.637044e-11
-5.679666e-11
-5.732562e-11
-4.382246e-10
-3.935977e-11
-5.540505e-11
-5.585353e-11
-5.615009e-11
-5.653168e-11
-5.714675e-11
-4.682714e-10
-3.892844e-11
-5.528112e-11
-5.563477e-11
-5.591584e-11
-5.633064e-11
-5.684732e-11
-4.859413e-10
-3.833822e-11
-5.516034e-11
-5.534274e-11
-5.563733e-11
-5.604559e-11
-5.652903e-11
-4.872916e-10
-3.76128e-11
-5.494614e-11
-5.509602e-11
-5.527626e-11
-5.564832e-11
-5.609726e-11
-4.679568e-10
-3.712316e-11
-5.471581e-11
-5.484977e-11
-5.496548e-11
-5.523596e-11
-5.555663e-11
-4.277734e-10
-3.657301e-11
-5.450007e-11
-5.453746e-11
-5.467391e-11
-5.49238e-11
-5.516153e-11
-3.695061e-10
-3.605027e-11
-5.430117e-11
-5.425876e-11
-5.434777e-11
-5.451692e-11
-5.477774e-11
-2.969512e-10
-3.520536e-11
-5.417074e-11
-5.403059e-11
-5.407587e-11
-5.416774e-11
-5.430875e-11
-2.152656e-10
-3.399907e-11
-5.397913e-11
-5.384468e-11
-5.38636e-11
-5.391423e-11
-5.397002e-11
-1.365552e-10
-3.34223e-11
-5.375523e-11
-5.366463e-11
-5.368355e-11
-5.375424e-11
-5.373515e-11
-7.12477e-11
-3.306217e-11
-5.35537e-11
-5.346397e-11
-5.347952e-11
-5.35244e-11
-5.35556e-11
-2.625246e-11
-3.278319e-11
-5.341096e-11
-5.333841e-11
-5.336231e-11
-5.34034e-11
-5.347667e-11
-6.296114e-12
-3.25728e-11
-5.330833e-11
-5.324965e-11
-5.329297e-11
-5.335656e-11
-5.345232e-11
-1.60848e-11
-3.25238e-11
-5.320314e-11
-5.314409e-11
-5.319616e-11
-5.327536e-11
-5.33838e-11
-5.521978e-11
-3.263992e-11
-5.318352e-11
-5.313771e-11
-5.318421e-11
-5.324669e-11
-5.333012e-11
-1.165483e-10
-3.284675e-11
-5.322679e-11
-5.317892e-11
-5.321225e-11
-5.326523e-11
-5.328764e-11
-1.936409e-10
-3.316575e-11
-5.330231e-11
-5.324378e-11
-5.325102e-11
-5.33099e-11
-5.327688e-11
-2.752294e-10
-3.374489e-11
-5.342502e-11
-5.32911e-11
-5.330433e-11
-5.335704e-11
-5.338582e-11
-3.515588e-10
-3.496286e-11
-5.365234e-11
-5.353702e-11
-5.352298e-11
-5.353247e-11
-5.355231e-11
-4.11289e-10
-3.591532e-11
-5.379087e-11
-5.370342e-11
-5.370507e-11
-5.375425e-11
-5.382652e-11
-4.522088e-10
-3.652927e-11
-5.401035e-11
-5.395484e-11
-5.397246e-11
-5.409193e-11
-5.415387e-11
-4.731826e-10
-3.714178e-11
-5.427779e-11
-5.428584e-11
-5.427774e-11
-5.448263e-11
-5.458967e-11
-4.740551e-10
-3.763326e-11
-5.45921e-11
-5.46255e-11
-5.464786e-11
-5.487186e-11
-5.511701e-11
-4.583819e-10
-3.834373e-11
-5.489723e-11
-5.49705e-11
-5.506612e-11
-5.528931e-11
-5.558041e-11
-4.319452e-10
-3.896483e-11
-5.506857e-11
-5.536304e-11
-5.544998e-11
-5.56539e-11
-5.596871e-11
-3.982017e-10
-3.943731e-11
-5.521631e-11
-5.565083e-11
-5.583151e-11
-5.59793e-11
-5.636527e-11
-3.592085e-10
-3.97944e-11
-5.53824e-11
-5.584368e-11
-5.613274e-11
-5.640423e-11
-5.668015e-11
-3.174201e-10
-4.015108e-11
-5.553302e-11
-5.602305e-11
-5.635265e-11
-5.671883e-11
-5.705347e-11
-2.753312e-10
-4.076095e-11
-5.564604e-11
-5.615702e-11
-5.650038e-11
-5.688976e-11
-5.73481e-11
-2.345937e-10
-4.133825e-11
-5.569303e-11
-5.621942e-11
-5.658735e-11
-5.699908e-11
-5.746803e-11
-1.970399e-10
-4.17019e-11
-5.573318e-11
-5.625147e-11
-5.663143e-11
-5.705426e-11
-5.754698e-11
-1.633138e-10
-4.192279e-11
-5.576999e-11
-5.62742e-11
-5.665749e-11
-5.709105e-11
-5.759676e-11
-1.337667e-10
-4.219917e-11
-5.580504e-11
-5.629474e-11
-5.668176e-11
-5.712437e-11
-5.763809e-11
-1.084898e-10
-4.243223e-11
-5.582841e-11
-5.631075e-11
-5.670424e-11
-5.715415e-11
-5.766253e-11
-8.720334e-11
-4.262974e-11
-5.58495e-11
-5.63256e-11
-5.67245e-11
-5.717513e-11
-5.768084e-11
-6.967257e-11
-4.280707e-11
-5.586838e-11
-5.633679e-11
-5.674118e-11
-5.718791e-11
-5.769529e-11
-5.533389e-11
-4.294782e-11
-5.589035e-11
-5.634643e-11
-5.674939e-11
-5.719774e-11
-5.770742e-11
-4.369515e-11
-4.335481e-11
-5.591978e-11
-5.63562e-11
-5.675654e-11
-5.720631e-11
-5.771803e-11
-3.435314e-11
-4.366977e-11
-5.592706e-11
-5.636138e-11
-5.676242e-11
-5.721393e-11
-5.772825e-11
-2.684038e-11
-4.386315e-11
-5.593693e-11
-5.636563e-11
-5.676772e-11
-5.722077e-11
-5.773734e-11
-2.096201e-11
-4.404046e-11
-5.594841e-11
-5.636945e-11
-5.677252e-11
-5.72268e-11
-5.774572e-11
-1.634427e-11
-4.410656e-11
-5.595689e-11
-5.637282e-11
-5.677685e-11
-5.723284e-11
-5.776135e-11
-1.271762e-11
-4.417958e-11
-5.596467e-11
-5.637593e-11
-5.678073e-11
-5.723812e-11
-5.77743e-11
-9.877496e-12
-4.424278e-11
-5.597152e-11
-5.637874e-11
-5.67842e-11
-5.72426e-11
-5.777999e-11
-7.659217e-12
-4.430353e-11
-5.597777e-11
-5.638129e-11
-5.678739e-11
-5.724719e-11
-5.778513e-11
-5.941189e-12
-4.436102e-11
-5.598332e-11
-5.638353e-11
-5.679063e-11
-5.72569e-11
-5.779475e-11
-4.606323e-12
-4.441545e-11
-5.598832e-11
-5.638563e-11
-5.679356e-11
-5.726483e-11
-5.780603e-11
-3.573203e-12
-4.446714e-11
-5.599286e-11
-5.638755e-11
-5.679591e-11
-5.726802e-11
-5.78097e-11
-2.770029e-12
-4.451611e-11
-5.599687e-11
-5.638927e-11
-5.679848e-11
-5.727085e-11
-5.781269e-11
-2.144352e-12
-4.456268e-11
-5.600056e-11
-5.639114e-11
-5.680471e-11
-5.727696e-11
-5.781586e-11
-1.658622e-12
-4.460682e-11
-5.600392e-11
-5.639281e-11
-5.680979e-11
-5.72842e-11
-5.781887e-11
-1.278642e-12
-4.464883e-11
-5.600692e-11
-5.639408e-11
-5.681149e-11
-5.728638e-11
-5.782118e-11
-9.804786e-13
-4.468857e-11
-5.600956e-11
-5.639529e-11
-5.681295e-11
-5.728806e-11
-5.782334e-11
-7.458651e-13
-4.472626e-11
-5.601193e-11
-5.639659e-11
-5.681442e-11
-5.728967e-11
-5.782542e-11
-5.606982e-13
-4.476209e-11
-5.60143e-11
-5.640027e-11
-5.681803e-11
-5.729136e-11
-5.78274e-11
-4.151872e-13
-4.479582e-11
-5.601634e-11
-5.640318e-11
-5.682237e-11
-5.729309e-11
-5.78292e-11
-3.041146e-13
-4.482748e-11
-5.601802e-11
-5.640399e-11
-5.682346e-11
-5.72944e-11
-5.783095e-11
-2.203165e-13
-4.485681e-11
-5.601943e-11
-5.640458e-11
-5.682426e-11
-5.729557e-11
-5.783255e-11
-1.600246e-13
-4.488397e-11
-5.602067e-11
-5.640507e-11
-5.682502e-11
-5.729673e-11
-5.783412e-11
-1.186769e-13
-4.490857e-11
-5.602169e-11
-5.640549e-11
-5.682577e-11
-5.729789e-11
-5.783575e-11
-8.633668e-14
-4.493009e-11
-5.602254e-11
-5.640589e-11
-5.682652e-11
-5.72991e-11
-5.783741e-11
-6.09407e-14
-4.494715e-11
-5.602329e-11
-5.640637e-11
-5.682738e-11
-5.730053e-11
-5.783928e-11
-4.127894e-14
-4.496675e-11
-5.602575e-11
-5.64083e-11
-5.682871e-11
-5.730227e-11
-5.784194e-11
-2.866837e-14
-4.497861e-11
-5.602789e-11
-5.641123e-11
-5.683079e-11
-5.730501e-11
-5.785318e-11
-2.642417e-14
-4.497612e-11
-5.602971e-11
-5.641352e-11
-5.683395e-11
-5.731569e-11
-5.786579e-11
-3.180457e-14
-4.496591e-11
-5.603416e-11
-5.6418e-11
-5.684527e-11
-5.732814e-11
-5.787903e-11
-4.308855e-14
-4.493376e-11
-5.604374e-11
-5.643212e-11
-5.685958e-11
-5.734184e-11
-5.789296e-11
-6.727807e-14
-4.497321e-11
-5.606892e-11
-5.64527e-11
-5.687672e-11
-5.735666e-11
-5.790726e-11
-7.543808e-14
-4.591625e-11
-5.609732e-11
-5.647931e-11
-5.689758e-11
-5.737248e-11
-5.79217e-11
-5.857331e-11
-5.939953e-11
-6.051547e-11
-6.159771e-11
-6.355519e-11
-6.51483e-11
-7.734698e-10
-5.855943e-11
-5.938138e-11
-6.049122e-11
-6.156878e-11
-6.352061e-11
-6.601559e-11
-1.123795e-10
-5.854459e-11
-5.936313e-11
-6.046813e-11
-6.194452e-11
-6.348803e-11
-6.596441e-11
-1.226361e-10
-5.852946e-11
-5.934473e-11
-6.044352e-11
-6.151057e-11
-6.344874e-11
-6.591473e-11
-1.239865e-10
-5.85147e-11
-5.932632e-11
-6.042007e-11
-6.147954e-11
-6.34125e-11
-6.587421e-11
-1.337964e-10
-5.850015e-11
-5.930793e-11
-6.039611e-11
-6.145006e-11
-6.337671e-11
-6.584165e-11
-1.481222e-10
-5.848598e-11
-5.928973e-11
-6.037231e-11
-6.142157e-11
-6.336665e-11
-6.581318e-11
-1.613983e-10
-5.847303e-11
-5.927172e-11
-6.034873e-11
-6.139364e-11
-6.335729e-11
-6.57948e-11
-1.742062e-10
-5.846975e-11
-5.925505e-11
-6.032622e-11
-6.136511e-11
-6.332867e-11
-6.578324e-11
-1.816467e-10
-5.846732e-11
-5.925078e-11
-6.030518e-11
-6.13367e-11
-6.330026e-11
-6.577898e-11
-1.892256e-10
-5.846506e-11
-5.924759e-11
-6.029955e-11
-6.130904e-11
-6.327193e-11
-6.577745e-11
-1.971885e-10
-5.846276e-11
-5.924428e-11
-6.029514e-11
-6.130284e-11
-6.324341e-11
-6.578646e-11
-1.996301e-10
-5.846047e-11
-5.924095e-11
-6.029054e-11
-6.129719e-11
-6.323799e-11
-6.579274e-11
-2.01097e-10
-5.845808e-11
-5.923752e-11
-6.028577e-11
-6.129124e-11
-6.323193e-11
-6.581812e-11
-2.066351e-10
-5.845561e-11
-5.923387e-11
-6.028075e-11
-6.128501e-11
-6.322555e-11
-6.587474e-11
-1.426627e-10
-5.845299e-11
-5.923004e-11
-6.02755e-11
-6.127846e-11
-6.321864e-11
-6.593086e-11
-1.449524e-10
-5.845026e-11
-5.922601e-11
-6.027002e-11
-6.127145e-11
-6.320888e-11
-6.595292e-11
-1.376104e-10
-5.844737e-11
-5.922187e-11
-6.026415e-11
-6.126108e-11
-6.31222e-11
-6.597402e-11
-1.295327e-10
-5.844431e-11
-5.921768e-11
-6.025807e-11
-6.125332e-11
-6.310973e-11
-6.598797e-11
-1.231111e-10
-5.844103e-11
-5.921321e-11
-6.025161e-11
-6.124516e-11
-6.309904e-11
-6.598791e-11
-4.144811e-11
-5.843758e-11
-5.920845e-11
-6.024482e-11
-6.123652e-11
-6.308774e-11
-6.583247e-11
1.324118e-09
-5.843381e-11
-5.920336e-11
-6.023767e-11
-6.122726e-11
-6.307572e-11
-6.582118e-11
-2.408844e-11
-5.842982e-11
-5.919791e-11
-6.022959e-11
-6.121795e-11
-6.306107e-11
-6.49924e-11
2.199209e-13
-5.84248e-11
-5.919204e-11
-6.022197e-11
-6.158073e-11
-6.298254e-11
-6.504962e-11
-9.201698e-11
-5.841952e-11
-5.918579e-11
-6.021228e-11
-6.119923e-11
-6.293619e-11
-6.486591e-11
-6.257781e-11
-5.841441e-11
-5.917913e-11
-6.020342e-11
-6.11843e-11
-6.291817e-11
-6.458477e-11
-1.856531e-11
-5.840792e-11
-5.917148e-11
-6.019306e-11
-6.11714e-11
-6.289931e-11
-6.460684e-11
-1.763005e-11
-5.839004e-11
-5.916301e-11
-6.018223e-11
-6.115779e-11
-6.287449e-11
-6.469702e-11
-1.572002e-11
-5.837548e-11
-5.894919e-11
-5.989335e-11
-6.114097e-11
-6.285111e-11
-6.473513e-11
-9.385177e-12
-5.836659e-11
-5.89397e-11
-5.98817e-11
-6.112559e-11
-6.28288e-11
-6.490204e-11
7.978752e-12
-5.834145e-11
-5.890933e-11
-5.9869e-11
-6.110879e-11
-6.280371e-11
-6.460671e-11
-1.875189e-10
-5.832089e-11
-5.888221e-11
-5.985478e-11
-6.108999e-11
-6.277599e-11
-6.457162e-11
-1.853472e-10
-5.8307e-11
-5.883672e-11
-5.983589e-11
-6.106818e-11
-6.274479e-11
-6.463771e-11
-1.480403e-10
-5.829253e-11
-5.881694e-11
-5.978608e-11
-6.10418e-11
-6.270821e-11
-6.475369e-11
-7.479916e-11
-5.827573e-11
-5.879176e-11
-5.972278e-11
-6.100742e-11
-6.266491e-11
-6.49313e-11
5.243088e-11
-5.825771e-11
-5.876102e-11
-5.965078e-11
-6.09503e-11
-6.260976e-11
-6.456981e-11
8.10395e-11
-5.824574e-11
-5.872684e-11
-5.960857e-11
-6.081854e-11
-6.253493e-11
-6.463963e-11
6.112834e-11
-5.824182e-11
-5.870238e-11
-5.95731e-11
-6.070063e-11
-6.245054e-11
-6.43419e-11
1.829028e-10
-5.824759e-11
-5.869853e-11
-5.957072e-11
-6.068384e-11
-6.237031e-11
-6.491566e-11
-3.023128e-11
-5.826516e-11
-5.872223e-11
-5.967687e-11
-6.087469e-11
-6.228502e-11
-6.474785e-11
-1.28213e-11
-5.82596e-11
-5.878421e-11
-5.986174e-11
-6.084198e-11
-6.209732e-11
-6.423562e-11
-6.305683e-11
-5.820973e-11
-5.881383e-11
-5.964705e-11
-6.049384e-11
-6.180315e-11
-6.355029e-11
-7.108674e-11
-5.811118e-11
-5.874507e-11
-5.943227e-11
-6.012516e-11
-6.140717e-11
-6.316494e-11
-9.749387e-11
-5.798153e-11
-5.858171e-11
-5.923871e-11
-5.979988e-11
-6.103367e-11
-6.311296e-11
-1.170849e-10
-5.764767e-11
-5.840194e-11
-5.887322e-11
-5.964883e-11
-6.050827e-11
-6.308487e-11
-9.377537e-11
-5.721975e-11
-5.809532e-11
-5.879138e-11
-5.911738e-11
-6.032682e-11
-6.29693e-11
-2.919939e-10
-5.678291e-11
-5.769048e-11
-5.828594e-11
-5.900855e-11
-5.977305e-11
-6.319953e-11
-2.715249e-10
-5.63532e-11
-5.714496e-11
-5.814162e-11
-5.854914e-11
-5.973868e-11
-6.244108e-11
-2.412904e-10
-5.571007e-11
-5.668335e-11
-5.75219e-11
-5.816725e-11
-5.931313e-11
-6.283285e-11
-2.037973e-10
-5.523678e-11
-5.602583e-11
-5.701226e-11
-5.771252e-11
-5.896893e-11
-6.145581e-11
-1.237457e-10
-5.47669e-11
-5.557695e-11
-5.632957e-11
-5.720738e-11
-5.872018e-11
-6.023307e-11
-5.516605e-11
-5.443557e-11
-5.516747e-11
-5.593345e-11
-5.679204e-11
-5.831914e-11
-1.039904e-10
-2.670663e-09
-5.417776e-11
-5.476048e-11
-5.559346e-11
-5.665355e-11
-5.824861e-11
-1.084555e-10
-3.327006e-09
-5.39287e-11
-5.449306e-11
-5.520365e-11
-5.639271e-11
-5.786079e-11
-1.362207e-10
-1.925989e-09
-5.376546e-11
-5.418006e-11
-5.500613e-11
-5.597186e-11
-5.702086e-11
-5.756631e-11
-1.222426e-10
-5.372913e-11
-5.405196e-11
-5.490567e-11
-5.574254e-11
-5.630782e-11
-5.678343e-11
-5.365712e-11
-5.396055e-11
-5.485004e-11
-5.576105e-11
-5.640289e-11
-5.677554e-11
-5.361632e-11
-5.391307e-11
-5.481942e-11
-5.590955e-11
-5.628277e-11
-5.667791e-11
-5.359923e-11
-5.398488e-11
-5.503427e-11
-5.587049e-11
-5.683945e-11
-7.045866e-11
-1.15722e-09
-5.364141e-11
-5.39838e-11
-5.495687e-11
-5.599643e-11
-5.771647e-11
-1.905106e-10
-3.858488e-09
-5.369082e-11
-5.399193e-11
-5.490142e-11
-5.60067e-11
-5.765881e-11
-1.262521e-10
-5.137308e-09
-5.381136e-11
-5.402365e-11
-5.48648e-11
-5.603403e-11
-5.772363e-11
-5.990084e-11
-1.192681e-10
-5.404882e-11
-5.418309e-11
-5.527707e-11
-5.654612e-11
-5.789639e-11
-5.981626e-11
-6.607266e-11
-5.444412e-11
-5.460704e-11
-5.550622e-11
-5.668227e-11
-5.841404e-11
-6.00923e-11
-7.721887e-11
-5.500068e-11
-5.508027e-11
-5.580314e-11
-5.70287e-11
-5.850565e-11
-6.073012e-11
-8.886479e-11
-5.547445e-11
-5.569683e-11
-5.632406e-11
-5.713704e-11
-5.869298e-11
-6.147592e-11
-1.82642e-10
-5.598977e-11
-5.622546e-11
-5.672009e-11
-5.764151e-11
-5.893463e-11
-6.113729e-11
-8.013474e-11
-5.651828e-11
-5.679124e-11
-5.721903e-11
-5.800799e-11
-5.94784e-11
-6.158067e-11
-1.168194e-10
-5.68902e-11
-5.727705e-11
-5.771931e-11
-5.852654e-11
-5.990692e-11
-6.193774e-11
-7.415724e-11
-5.722091e-11
-5.766802e-11
-5.825064e-11
-5.898427e-11
-6.034059e-11
-6.218799e-11
-5.445521e-10
-5.750128e-11
-5.795064e-11
-5.872661e-11
-5.943668e-11
-6.084112e-11
-6.255241e-11
-2.714625e-11
-5.784773e-11
-5.816193e-11
-5.908781e-11
-6.004564e-11
-6.132129e-11
-6.323905e-11
5.911577e-11
-5.805971e-11
-5.849986e-11
-5.928084e-11
-6.041701e-11
-6.17919e-11
-6.414093e-11
-3.113325e-11
-5.814299e-11
-5.860013e-11
-5.948002e-11
-6.059888e-11
-6.216342e-11
-6.462424e-11
-1.973231e-11
-5.819069e-11
-5.867053e-11
-5.955046e-11
-6.070705e-11
-6.251988e-11
-6.443396e-11
2.223232e-10
-5.822364e-11
-5.871544e-11
-5.960589e-11
-6.080374e-11
-6.257213e-11
-6.491477e-11
7.239729e-10
-5.824921e-11
-5.874848e-11
-5.964222e-11
-6.091871e-11
-6.262092e-11
-6.495649e-11
1.225271e-11
-5.82702e-11
-5.877651e-11
-5.968728e-11
-6.099376e-11
-6.265545e-11
-6.478323e-11
6.664332e-11
-5.828734e-11
-5.880194e-11
-5.974923e-11
-6.102472e-11
-6.269028e-11
-6.480187e-11
5.844526e-11
-5.830209e-11
-5.881811e-11
-5.981734e-11
-6.104986e-11
-6.272389e-11
-6.472157e-11
-1.317924e-10
-5.831656e-11
-5.885538e-11
-5.983989e-11
-6.107286e-11
-6.275512e-11
-6.453264e-11
-1.771654e-10
-5.833736e-11
-5.888723e-11
-5.985705e-11
-6.109371e-11
-6.278422e-11
-6.457881e-11
-1.963306e-10
-5.836302e-11
-5.892818e-11
-5.987142e-11
-6.11127e-11
-6.281164e-11
-6.46288e-11
7.360299e-11
-5.837297e-11
-5.89386e-11
-5.988487e-11
-6.112995e-11
-6.283616e-11
-6.495379e-11
-1.217888e-11
-5.838809e-11
-5.916098e-11
-6.017969e-11
-6.114804e-11
-6.285931e-11
-6.474911e-11
-8.810268e-12
-5.840637e-11
-5.91698e-11
-6.019119e-11
-6.116238e-11
-6.288572e-11
-6.465991e-11
-1.271709e-11
-5.84132e-11
-5.917775e-11
-6.020183e-11
-6.117593e-11
-6.290749e-11
-6.460932e-11
-1.478599e-11
-5.841856e-11
-5.918473e-11
-6.021159e-11
-6.118853e-11
-6.29264e-11
-6.457074e-11
-1.823704e-11
-5.842407e-11
-5.919127e-11
-6.022076e-11
-6.12004e-11
-6.294628e-11
-6.573708e-11
-5.535025e-12
-5.842926e-11
-5.919727e-11
-6.022921e-11
-6.121161e-11
-6.303263e-11
-6.58183e-11
-1.002419e-11
-5.843337e-11
-5.920287e-11
-6.023714e-11
-6.122204e-11
-6.306943e-11
-6.586862e-11
-3.170171e-11
-5.843723e-11
-5.920815e-11
-6.024456e-11
-6.12317e-11
-6.308199e-11
-6.599596e-11
-3.865949e-11
-5.844082e-11
-5.921301e-11
-6.025149e-11
-6.124083e-11
-6.309386e-11
-6.600395e-11
-9.166991e-11
-5.844422e-11
-5.921757e-11
-6.025807e-11
-6.124934e-11
-6.310489e-11
-6.599438e-11
-9.444796e-11
-5.84473e-11
-5.922185e-11
-6.026418e-11
-6.125738e-11
-6.311528e-11
-6.598046e-11
-1.000472e-10
-5.845024e-11
-5.922604e-11
-6.02701e-11
-6.126688e-11
-6.316078e-11
-6.596229e-11
-1.062264e-10
-5.845299e-11
-5.92301e-11
-6.027564e-11
-6.127537e-11
-6.321565e-11
-6.593904e-11
-1.131649e-10
-5.845562e-11
-5.923392e-11
-6.028089e-11
-6.128222e-11
-6.322271e-11
-6.590736e-11
-1.156645e-10
-5.845808e-11
-5.923755e-11
-6.028589e-11
-6.128877e-11
-6.322937e-11
-6.585819e-11
-1.527329e-10
-5.846043e-11
-5.924095e-11
-6.029065e-11
-6.129493e-11
-6.32356e-11
-6.58259e-11
-1.736832e-10
-5.846266e-11
-5.924422e-11
-6.029517e-11
-6.130088e-11
-6.324155e-11
-6.581238e-11
-1.736321e-10
-5.846485e-11
-5.924744e-11
-6.029952e-11
-6.130654e-11
-6.325841e-11
-6.581064e-11
-1.738346e-10
-5.846699e-11
-5.925054e-11
-6.030507e-11
-6.132353e-11
-6.328653e-11
-6.580668e-11
-1.73578e-10
-5.846924e-11
-5.925465e-11
-6.032598e-11
-6.135191e-11
-6.331487e-11
-6.580802e-11
-1.690336e-10
-5.847226e-11
-5.927107e-11
-6.034829e-11
-6.138052e-11
-6.334325e-11
-6.581746e-11
-1.633288e-10
-5.848485e-11
-5.928884e-11
-6.037167e-11
-6.14093e-11
-6.337049e-11
-6.583083e-11
-1.588198e-10
-5.849865e-11
-5.93068e-11
-6.039531e-11
-6.143662e-11
-6.336019e-11
-6.585155e-11
-1.51584e-10
-5.851282e-11
-5.9325e-11
-6.04191e-11
-6.146578e-11
-6.33948e-11
-6.588041e-11
-1.423994e-10
-5.852734e-11
-5.934341e-11
-6.044305e-11
-6.149498e-11
-6.343059e-11
-6.59167e-11
-1.374014e-10
-5.854248e-11
-5.9362e-11
-6.046709e-11
-6.152436e-11
-6.346655e-11
-6.596003e-11
-1.401511e-10
-5.855776e-11
-5.938053e-11
-6.049114e-11
-6.155358e-11
-6.350268e-11
-6.601362e-11
-1.458661e-10
-5.857305e-11
-5.939938e-11
-6.051527e-11
-6.158277e-11
-6.353869e-11
-6.602949e-11
-2.5432e-10
-7.161818e-08
-9.950666e-08
-9.425314e-08
-9.42951e-08
-9.429736e-08
-9.429742e-08
-9.429743e-08
-9.429743e-08
-9.429744e-08
-9.429745e-08
-9.429746e-08
-9.429747e-08
-9.429748e-08
-9.42975e-08
-9.429749e-08
-9.429751e-08
-9.429752e-08
-9.429754e-08
-1.065964e-07
-9.029221e-08
-9.426651e-08
-9.429453e-08
-9.42949e-08
-9.42949e-08
-9.42949e-08
-9.429489e-08
-9.429489e-08
-9.429488e-08
-9.429488e-08
-9.429487e-08
-9.429487e-08
-9.429486e-08
-9.429488e-08
-9.429486e-08
-9.429485e-08
-9.429484e-08
-9.989865e-08
-9.65364e-08
-9.433298e-08
-9.429651e-08
-9.429602e-08
-9.429602e-08
-9.429601e-08
-9.429601e-08
-9.429602e-08
-9.429601e-08
-9.429601e-08
-9.429601e-08
-9.429601e-08
-9.4296e-08
-9.4296e-08
-9.4296e-08
-9.4296e-08
-9.4296e-08
-1.013066e-07
-9.578265e-08
-9.43077e-08
-9.429621e-08
-9.429613e-08
-9.429612e-08
-9.429612e-08
-9.429612e-08
-9.429613e-08
-9.429613e-08
-9.429613e-08
-9.429613e-08
-9.429613e-08
-9.429613e-08
-9.429613e-08
-9.429613e-08
-9.429613e-08
-9.429613e-08
-1.013153e-07
-9.51915e-08
-9.42985e-08
-9.429603e-08
-9.429604e-08
-9.429602e-08
-9.429602e-08
-9.429602e-08
-9.429602e-08
-9.429602e-08
-9.429602e-08
-9.429602e-08
-9.429602e-08
-9.429602e-08
-9.429603e-08
-9.429603e-08
-9.429603e-08
-9.429603e-08
-9.98944e-08
-9.518555e-08
-9.42975e-08
-9.429601e-08
-9.429602e-08
-9.4296e-08
-9.4296e-08
-9.4296e-08
-9.4296e-08
-9.4296e-08
-9.4296e-08
-9.4296e-08
-9.4296e-08
-9.4296e-08
-9.4296e-08
-9.4296e-08
-9.4296e-08
-9.4296e-08
-9.841573e-08
-9.517671e-08
-9.429739e-08
-9.429601e-08
-9.429603e-08
-9.4296e-08
-9.4296e-08
-9.4296e-08
-9.4296e-08
-9.4296e-08
-9.4296e-08
-9.4296e-08
-9.4296e-08
-9.4296e-08
-9.4296e-08
-9.4296e-08
-9.4296e-08
-9.4296e-08
-9.611646e-08
-9.513486e-08
-9.429732e-08
-9.429601e-08
-9.429604e-08
-9.4296e-08
-9.4296e-08
-9.4296e-08
-9.4296e-08
-9.4296e-08
-9.4296e-08
-9.4296e-08
-9.4296e-08
-9.4296e-08
-9.4296e-08
-9.4296e-08
-9.4296e-08
-9.4296e-08
-9.413172e-08
-9.525353e-08
-9.429745e-08
-9.429601e-08
-9.429604e-08
-9.429601e-08
-9.4296e-08
-9.4296e-08
-9.4296e-08
-9.4296e-08
-9.4296e-08
-9.4296e-08
-9.4296e-08
-9.4296e-08
-9.429601e-08
-9.4296e-08
-9.4296e-08
-9.4296e-08
-9.202488e-08
-9.531393e-08
-9.429737e-08
-9.429602e-08
-9.429604e-08
-9.429601e-08
-9.4296e-08
-9.4296e-08
-9.4296e-08
-9.4296e-08
-9.4296e-08
-9.4296e-08
-9.4296e-08
-9.4296e-08
-9.429601e-08
-9.429601e-08
-9.4296e-08
-9.4296e-08
-8.964913e-08
-9.527004e-08
-9.42974e-08
-9.429603e-08
-9.429603e-08
-9.429601e-08
-9.4296e-08
-9.4296e-08
-9.4296e-08
-9.4296e-08
-9.4296e-08
-9.4296e-08
-9.4296e-08
-9.4296e-08
-9.429601e-08
-9.429601e-08
-9.4296e-08
-9.4296e-08
-8.672358e-08
-9.535302e-08
-9.429967e-08
-9.429606e-08
-9.429603e-08
-9.429601e-08
-9.4296e-08
-9.4296e-08
-9.4296e-08
-9.4296e-08
-9.4296e-08
-9.4296e-08
-9.4296e-08
-9.4296e-08
-9.429601e-08
-9.429601e-08
-9.4296e-08
-9.4296e-08
-8.381885e-08
-9.673789e-08
-9.431447e-08
-9.429658e-08
-9.429604e-08
-9.429601e-08
-9.429601e-08
-9.4296e-08
-9.4296e-08
-9.4296e-08
-9.4296e-08
-9.4296e-08
-9.4296e-08
-9.4296e-08
-9.429601e-08
-9.429601e-08
-9.4296e-08
-9.4296e-08
-8.374801e-08
-9.671588e-08
-9.4351e-08
-9.43007e-08
-9.429616e-08
-9.429601e-08
-9.429601e-08
-9.4296e-08
-9.4296e-08
-9.4296e-08
-9.4296e-08
-9.4296e-08
-9.4296e-08
-9.4296e-08
-9.429602e-08
-9.429601e-08
-9.4296e-08
-9.4296e-08
-6.647375e-08
-9.395413e-08
-9.430054e-08
-9.431361e-08
-9.429726e-08
-9.429603e-08
-9.429601e-08
-9.4296e-08
-9.4296e-08
-9.4296e-08
-9.4296e-08
-9.4296e-08
-9.4296e-08
-9.4296e-08
-9.429602e-08
-9.429601e-08
-9.4296e-08
-9.4296e-08
-6.336038e-08
-9.732916e-08
-9.421891e-08
-9.430094e-08
-9.4301e-08
-9.42962e-08
-9.429601e-08
-9.429601e-08
-9.4296e-08
-9.4296e-08
-9.4296e-08
-9.4296e-08
-9.4296e-08
-9.4296e-08
-9.429602e-08
-9.429602e-08
-9.4296e-08
-9.4296e-08
-5.973697e-08
-9.53541e-08
-9.432911e-08
-9.426774e-08
-9.429795e-08
-9.429681e-08
-9.429604e-08
-9.429601e-08
-9.429601e-08
-9.4296e-08
-9.4296e-08
-9.4296e-08
-9.4296e-08
-9.4296e-08
-9.429602e-08
-9.429602e-08
-9.4296e-08
-9.4296e-08
-5.573614e-08
-9.669475e-08
-9.432289e-08
-9.430623e-08
-9.428693e-08
-9.429667e-08
-9.429614e-08
-9.429601e-08
-9.429601e-08
-9.4296e-08
-9.4296e-08
-9.4296e-08
-9.4296e-08
-9.4296e-08
-9.429601e-08
-9.429601e-08
-9.4296e-08
-9.4296e-08
-5.19934e-08
-9.64138e-08
-9.427822e-08
-9.430333e-08
-9.42999e-08
-9.429462e-08
-9.429616e-08
-9.429603e-08
-9.429602e-08
-9.4296e-08
-9.4296e-08
-9.4296e-08
-9.4296e-08
-9.429601e-08
-9.4296e-08
-9.4296e-08
-9.4296e-08
-9.4296e-08
-4.828184e-08
-9.626191e-08
-9.428719e-08
-9.428922e-08
-9.429726e-08
-9.429612e-08
-9.429585e-08
-9.429603e-08
-9.429602e-08
-9.4296e-08
-9.4296e-08
-9.4296e-08
-9.4296e-08
-9.429601e-08
-9.4296e-08
-9.429601e-08
-9.4296e-08
-9.4296e-08
-4.297323e-08
-9.608918e-08
-9.429498e-08
-9.429279e-08
-9.429441e-08
-9.42963e-08
-9.429591e-08
-9.429598e-08
-9.429602e-08
-9.429601e-08
-9.4296e-08
-9.4296e-08
-9.4296e-08
-9.429601e-08
-9.429602e-08
-9.4296e-08
-9.4296e-08
-9.4296e-08
-4.195102e-08
-9.616748e-08
-9.42961e-08
-9.429557e-08
-9.429544e-08
-9.429578e-08
-9.429605e-08
-9.429598e-08
-9.429604e-08
-9.429601e-08
-9.4296e-08
-9.4296e-08
-9.4296e-08
-9.429601e-08
-9.429602e-08
-9.4296e-08
-9.4296e-08
-9.4296e-08
-4.000056e-08
-9.610508e-08
-9.429555e-08
-9.429604e-08
-9.429624e-08
-9.429591e-08
-9.429599e-08
-9.429601e-08
-9.429598e-08
-9.429601e-08
-9.4296e-08
-9.4296e-08
-9.4296e-08
-9.429604e-08
-9.42961e-08
-9.4296e-08
-9.4296e-08
-9.4296e-08
-3.754593e-08
-9.598166e-08
-9.429461e-08
-9.429614e-08
-9.429656e-08
-9.4296e-08
-9.429603e-08
-9.429601e-08
-9.429608e-08
-9.429599e-08
-9.4296e-08
-9.4296e-08
-9.4296e-08
-9.429617e-08
-9.429636e-08
-9.4296e-08
-9.4296e-08
-9.4296e-08
-3.478008e-08
-9.593805e-08
-9.429383e-08
-9.429636e-08
-9.429702e-08
-9.429602e-08
-9.429605e-08
-9.429603e-08
-9.429607e-08
-9.429602e-08
-9.4296e-08
-9.4296e-08
-9.4296e-08
-9.42963e-08
-9.429664e-08
-9.4296e-08
-9.4296e-08
-9.429601e-08
-3.270509e-08
-9.587206e-08
-9.42931e-08
-9.429825e-08
-9.429922e-08
-9.429603e-08
-9.429609e-08
-9.429606e-08
-9.429615e-08
-9.429601e-08
-9.429601e-08
-9.4296e-08
-9.4296e-08
-9.429605e-08
-9.429566e-08
-9.4296e-08
-9.4296e-08
-9.429603e-08
-3.050744e-08
-9.565588e-08
-9.429239e-08
-9.432291e-08
-9.432102e-08
-9.429594e-08
-9.42962e-08
-9.429644e-08
-9.429637e-08
-9.4296e-08
-9.4296e-08
-9.429601e-08
-9.429602e-08
-9.42962e-08
-9.429663e-08
-9.4296e-08
-9.4296e-08
-9.429612e-08
-2.829284e-08
-9.511021e-08
-9.42939e-08
-9.453646e-08
-9.449576e-08
-9.429428e-08
-9.429652e-08
-9.430059e-08
-9.429814e-08
-9.429591e-08
-9.4296e-08
-9.4296e-08
-9.429607e-08
-9.429609e-08
-9.429616e-08
-9.4296e-08
-9.429601e-08
-9.429633e-08
-2.621783e-08
-9.427994e-08
-9.430596e-08
-9.535951e-08
-9.511634e-08
-9.428432e-08
-9.429747e-08
-9.432586e-08
-9.430981e-08
-9.429519e-08
-9.4296e-08
-9.429601e-08
-9.42961e-08
-9.429605e-08
-9.429594e-08
-9.4296e-08
-9.429603e-08
-9.429651e-08
-2.404021e-08
-9.258631e-08
-9.433311e-08
-9.522192e-08
-9.463695e-08
-9.428159e-08
-9.429922e-08
-9.436175e-08
-9.433723e-08
-9.429396e-08
-9.429599e-08
-9.429601e-08
-9.429617e-08
-9.429634e-08
-9.429604e-08
-9.429601e-08
-9.429616e-08
-9.429598e-08
-2.248916e-08
-9.09728e-08
-9.452248e-08
-9.356415e-08
-9.388521e-08
-9.437872e-08
-9.430008e-08
-9.424143e-08
-9.427548e-08
-9.429755e-08
-9.429601e-08
-9.429602e-08
-9.429682e-08
-9.4297e-08