/*--------------------------------*- C++ -*----------------------------------*\
| =========                 |                                                 |
| \\      /  F ield         | OpenFOAM: The Open Source CFD Toolbox           |
|  \\    /   O peration     | Version:  2206                                  |
|   \\  /    A nd           | Website:  www.openfoam.com                      |
|    \\/     M anipulation  |                                                 |
\*---------------------------------------------------------------------------*/
FoamFile
{
    version     2.0;
    format      ascii;
    arch        "LSB;label=32;scalar=64";
    class       volVectorField;
    location    "2.4";
    object      ddt0(U.a);
}
// * * * * * * * * * * * * * * * * * * * * * * * * * * * * * * * * * * * * * //

dimensions      [0 1 -2 0 0 0 0];

internalField   nonuniform List<vector> 
13078
(
(4.784153e-07 -3.10022e-06 3.531228e-28)
(-1.900211e-07 -8.43769e-06 -8.075463e-31)
(4.358686e-07 -6.797131e-06 -4.678524e-29)
(3.031825e-07 -5.046401e-06 0)
(2.545427e-07 -4.37253e-06 -1.017995e-29)
(2.016525e-07 -4.214373e-06 -1.14354e-29)
(1.267479e-07 -4.213353e-06 -1.307874e-29)
(3.092008e-06 -2.66478e-07 0)
(-1.67015e-06 -4.976165e-06 -6.975827e-31)
(-1.373438e-06 -5.248247e-06 0)
(-5.284825e-07 -4.540045e-06 0)
(-1.043223e-07 -4.25229e-06 -1.29445e-31)
(8.335496e-08 -4.158279e-06 -6.09252e-32)
(1.377448e-07 -4.191684e-06 -1.130062e-31)
(-5.520775e-07 -1.626427e-06 3.449327e-29)
(-1.381527e-06 -3.205577e-06 -2.482452e-29)
(-1.026374e-06 -3.658106e-06 7.798321e-30)
(-5.172534e-07 -3.793105e-06 1.588134e-29)
(-1.563564e-07 -3.887049e-06 1.002611e-29)
(9.539528e-08 -3.972606e-06 0)
(2.121579e-07 -4.090389e-06 -7.754039e-35)
(-7.321903e-07 -9.431202e-07 1.78536e-29)
(-7.306095e-07 -1.791387e-06 -4.056331e-29)
(-5.561259e-07 -2.559478e-06 -3.59174e-29)
(-2.967089e-07 -3.149619e-06 -1.639035e-29)
(5.629193e-09 -3.497103e-06 5.154561e-31)
(2.487082e-07 -3.734464e-06 0)
(3.701107e-07 -3.945878e-06 2.221201e-31)
(1.485495e-07 -4.28254e-07 -3.092512e-32)
(9.536672e-08 -1.23671e-06 -2.455054e-29)
(6.561424e-08 -2.052892e-06 -4.674325e-29)
(1.591095e-07 -2.706741e-06 -4.474198e-29)
(3.434238e-07 -3.170229e-06 8.196751e-30)
(5.223394e-07 -3.511648e-06 -1.026971e-33)
(6.069438e-07 -3.801727e-06 1.404296e-29)
(6.746218e-07 -2.916029e-07 0)
(8.515643e-07 -9.983216e-07 2.530876e-31)
(7.474542e-07 -1.769199e-06 -4.19273e-31)
(7.175137e-07 -2.429234e-06 -2.696188e-29)
(7.909876e-07 -2.945813e-06 1.469864e-30)
(8.809723e-07 -3.344868e-06 -1.347835e-29)
(9.069061e-07 -3.690418e-06 -3.151705e-29)
(1.012453e-06 -2.641503e-07 0)
(1.460089e-06 -9.226922e-07 -3.513465e-29)
(1.376403e-06 -1.644106e-06 -4.109805e-29)
(1.282883e-06 -2.290854e-06 -9.737659e-30)
(1.271928e-06 -2.823207e-06 -2.866686e-29)
(1.292935e-06 -3.255128e-06 1.84557e-30)
(1.2562e-06 -3.63115e-06 0)
(1.284932e-06 -2.699017e-07 6.722404e-29)
(1.97117e-06 -9.27069e-07 -4.127874e-29)
(1.932558e-06 -1.624324e-06 -3.993617e-29)
(1.810965e-06 -2.261502e-06 0)
(1.750285e-06 -2.794092e-06 -7.124768e-29)
(1.725858e-06 -3.237525e-06 1.990388e-30)
(1.646388e-06 -3.636498e-06 2.269986e-30)
(1.540314e-06 -2.90907e-07 7.369243e-33)
(2.434117e-06 -9.762273e-07 9.567371e-29)
(2.440929e-06 -1.677706e-06 4.737838e-29)
(2.309916e-06 -2.31356e-06 1.464854e-30)
(2.223611e-06 -2.843311e-06 -1.640842e-28)
(2.173412e-06 -3.289313e-06 2.16022e-30)
(2.066122e-06 -3.698938e-06 0)
(1.800843e-06 -3.19539e-07 -8.981372e-29)
(2.890177e-06 -1.053219e-06 1.102201e-28)
(2.936608e-06 -1.780298e-06 5.337392e-29)
(2.802974e-06 -2.427921e-06 -1.024064e-28)
(2.704555e-06 -2.959727e-06 -5.496755e-32)
(2.642734e-06 -3.405702e-06 0)
(2.517317e-06 -3.819352e-06 0)
(2.079366e-06 -3.534966e-07 0)
(3.365305e-06 -1.150419e-06 0)
(3.447014e-06 -1.920374e-06 1.22169e-28)
(3.311757e-06 -2.593457e-06 -1.172952e-28)
(3.208944e-06 -3.13478e-06 6.274635e-32)
(3.144581e-06 -3.582827e-06 0)
(3.007163e-06 -3.99948e-06 0)
(2.384369e-06 -3.925184e-07 0)
(3.877504e-06 -1.265585e-06 -1.435957e-28)
(3.991967e-06 -2.093335e-06 1.391709e-28)
(3.85482e-06 -2.804706e-06 1.315794e-28)
(3.75143e-06 -3.3639e-06 -1.270312e-28)
(3.689313e-06 -3.819109e-06 0)
(3.543096e-06 -4.241546e-06 1.106499e-28)
(2.721583e-06 -4.373274e-07 0)
(4.439426e-06 -1.399516e-06 -1.638339e-28)
(4.58579e-06 -2.298031e-06 -1.530888e-30)
(4.446137e-06 -3.06004e-06 1.515685e-28)
(4.344946e-06 -3.647277e-06 -1.412811e-28)
(4.286568e-06 -4.116054e-06 1.301073e-28)
(4.132205e-06 -4.548939e-06 9.716018e-32)
(3.095898e-06 -4.884318e-07 -1.500474e-28)
(5.060695e-06 -1.553455e-06 0)
(5.238364e-06 -2.535979e-06 -1.693469e-30)
(5.094526e-06 -3.361251e-06 -2.368007e-30)
(5.003573e-06 -3.989624e-06 -3.202498e-28)
(4.946341e-06 -4.478418e-06 1.471734e-28)
(4.78167e-06 -4.926676e-06 -1.334437e-28)
(3.512473e-06 -5.465834e-07 -1.693291e-28)
(5.749297e-06 -1.729329e-06 0)
(5.954522e-06 -2.809268e-06 -3.746393e-30)
(5.801102e-06 -3.708069e-06 2.283991e-28)
(5.744548e-06 -4.39735e-06 -1.318915e-28)
(5.67961e-06 -4.913183e-06 0)
(5.498614e-06 -5.380918e-06 1.502755e-28)
(3.977221e-06 -6.126562e-07 0)
(6.514991e-06 -1.929215e-06 -2.341236e-28)
(6.744053e-06 -3.11893e-06 0)
(6.571662e-06 -4.096874e-06 2.22398e-28)
(6.541433e-06 -4.866188e-06 7.35196e-30)
(6.481674e-06 -5.420477e-06 8.633673e-30)
(6.286476e-06 -5.916362e-06 1.789963e-28)
(4.496838e-06 -6.880133e-07 0)
(7.370278e-06 -2.157853e-06 -5.268638e-28)
(7.626864e-06 -3.475937e-06 -2.322805e-30)
(7.429752e-06 -4.552203e-06 -3.208987e-30)
(7.411984e-06 -5.401007e-06 0)
(7.358156e-06 -6.002545e-06 0)
(7.149539e-06 -6.537051e-06 0)
(5.077678e-06 -7.735564e-07 -2.410487e-28)
(8.324206e-06 -2.417532e-06 -2.969302e-28)
(8.609058e-06 -3.882265e-06 -5.189432e-30)
(8.381626e-06 -5.072525e-06 -3.579959e-30)
(8.367408e-06 -6.008023e-06 0)
(8.31896e-06 -6.665488e-06 -2.471201e-28)
(8.092167e-06 -7.245784e-06 -2.43321e-29)
(5.725959e-06 -8.695807e-07 -2.708419e-28)
(9.384619e-06 -2.708721e-06 -3.334346e-28)
(9.693252e-06 -4.337152e-06 -8.688952e-30)
(9.421959e-06 -5.653933e-06 -7.995995e-30)
(9.404411e-06 -6.685469e-06 0)
(9.375032e-06 -7.413334e-06 -2.663005e-28)
(9.116459e-06 -8.041316e-06 -1.358615e-29)
(6.448446e-06 -9.757252e-07 -3.043395e-28)
(1.055941e-05 -3.029991e-06 -7.468287e-28)
(1.088085e-05 -4.836685e-06 -3.600682e-28)
(1.053831e-05 -6.287242e-06 0)
(1.049811e-05 -7.417317e-06 8.633423e-29)
(1.054038e-05 -8.246451e-06 1.308769e-28)
(1.022177e-05 -8.918006e-06 3.039415e-29)
(7.25258e-06 -1.091079e-06 -3.419405e-28)
(1.185795e-05 -3.378643e-06 -8.370189e-28)
(1.217747e-05 -5.374873e-06 -8.044128e-28)
(1.17317e-05 -6.958277e-06 -3.746574e-28)
(1.164091e-05 -8.171644e-06 1.256558e-29)
(1.173401e-05 -9.123074e-06 -3.364071e-28)
(1.137562e-05 -9.852532e-06 2.842374e-28)
(8.146909e-06 -1.214843e-06 0)
(1.329208e-05 -3.753385e-06 -4.677431e-28)
(1.359643e-05 -5.953348e-06 -4.491945e-28)
(1.302995e-05 -7.683201e-06 -8.624791e-28)
(1.28735e-05 -8.997268e-06 0)
(1.298036e-05 -1.005478e-05 -3.77555e-28)
(1.258669e-05 -1.086396e-05 4.136526e-31)
(9.140807e-06 -1.346103e-06 4.299343e-28)
(1.487482e-05 -4.152505e-06 0)
(1.51474e-05 -6.570986e-06 0)
(1.443594e-05 -8.463499e-06 1.208702e-29)
(1.420095e-05 -9.903219e-06 4.714671e-28)
(1.431147e-05 -1.109396e-05 0)
(1.392118e-05 -1.204815e-05 -3.804085e-28)
(1.024637e-05 -1.484623e-06 9.643401e-28)
(1.662575e-05 -4.576676e-06 0)
(1.684994e-05 -7.232437e-06 0)
(1.596593e-05 -9.312501e-06 5.283025e-28)
(1.563075e-05 -1.091514e-05 1.002985e-27)
(1.574482e-05 -1.230075e-05 -4.790692e-28)
(1.550172e-05 -1.354957e-05 0)
(1.148014e-05 -1.631139e-06 5.405722e-28)
(1.857676e-05 -5.03049e-06 3.432114e-30)
(1.874516e-05 -7.951466e-06 6.439954e-28)
(1.767376e-05 -1.026012e-05 1.548416e-29)
(1.723749e-05 -1.20804e-05 1.997198e-29)
(1.737663e-05 -1.372409e-05 -5.307819e-28)
(1.730348e-05 -1.541311e-05 0)
(1.286499e-05 -1.786837e-06 0)
(2.077699e-05 -5.520544e-06 -7.424054e-28)
(2.090173e-05 -8.748299e-06 7.156828e-28)
(1.965679e-05 -1.135729e-05 0)
(1.917666e-05 -1.351537e-05 -5.957448e-28)
(1.941427e-05 -1.557616e-05 1.043017e-28)
(1.950339e-05 -1.778113e-05 6.160258e-29)
(1.443069e-05 -1.950778e-06 -6.782707e-28)
(2.329564e-05 -6.046243e-06 -8.319031e-28)
(2.341242e-05 -9.626739e-06 8.01209e-28)
(2.202259e-05 -1.261516e-05 0)
(2.155552e-05 -1.523047e-05 -4.849324e-29)
(2.195288e-05 -1.783959e-05 -9.133097e-32)
(2.217237e-05 -2.057885e-05 6.901367e-29)
(1.621207e-05 -2.116627e-06 -7.5912e-28)
(2.622759e-05 -6.590575e-06 -9.311195e-28)
(2.639868e-05 -1.056048e-05 8.977182e-28)
(2.489659e-05 -1.399271e-05 0)
(2.447045e-05 -1.714918e-05 0)
(2.499643e-05 -2.034047e-05 -7.463001e-28)
(2.514505e-05 -2.340031e-05 1.134499e-28)
(1.824948e-05 -2.27022e-06 -8.496679e-28)
(2.969581e-05 -7.115569e-06 -1.04858e-27)
(3.001859e-05 -1.148692e-05 0)
(2.843744e-05 -1.539771e-05 9.088269e-28)
(2.805192e-05 -1.914261e-05 -6.017636e-29)
(2.862731e-05 -2.290067e-05 -1.596029e-27)
(2.841004e-05 -2.595647e-05 2.491523e-28)
(2.054748e-05 -2.386699e-06 -9.450364e-28)
(3.385011e-05 -7.545841e-06 0)
(3.447632e-05 -1.230502e-05 -1.143434e-27)
(3.284849e-05 -1.670081e-05 1.045239e-27)
(3.249226e-05 -2.109217e-05 -1.007697e-27)
(3.312302e-05 -2.560947e-05 -1.870149e-27)
(3.266667e-05 -2.924804e-05 -8.582775e-28)
(2.313298e-05 -2.417534e-06 0)
(3.874577e-05 -7.800186e-06 0)
(3.996327e-05 -1.286959e-05 -2.520477e-27)
(3.834579e-05 -1.770827e-05 0)
(3.793554e-05 -2.273159e-05 -2.259788e-27)
(3.849086e-05 -2.805603e-05 -1.050763e-27)
(3.762712e-05 -3.242263e-05 9.614146e-28)
(2.621718e-05 -2.347542e-06 -1.168326e-27)
(4.445392e-05 -7.730776e-06 1.442721e-27)
(4.672473e-05 -1.296127e-05 1.406728e-27)
(4.519806e-05 -1.82024e-05 0)
(4.454994e-05 -2.383035e-05 -1.267316e-27)
(4.478426e-05 -2.997364e-05 0)
(4.326665e-05 -3.509738e-05 8.546469e-28)
(2.975928e-05 -2.079046e-06 -1.292667e-27)
(5.101778e-05 -7.090736e-06 1.606357e-27)
(5.459076e-05 -1.231849e-05 4.732055e-27)
(5.361929e-05 -1.790928e-05 3.099232e-27)
(5.253901e-05 -2.425871e-05 -1.332466e-27)
(5.200589e-05 -3.122148e-05 1.075996e-28)
(4.935543e-05 -3.712296e-05 -1.248391e-28)
(3.390008e-05 -1.555746e-06 2.080405e-30)
(5.880722e-05 -5.726709e-06 8.122958e-30)
(6.376475e-05 -1.050179e-05 1.795e-27)
(6.340097e-05 -1.647615e-05 3.316354e-27)
(6.195732e-05 -2.351085e-05 -1.799863e-27)
(5.956837e-05 -3.092055e-05 2.329888e-28)
(5.552629e-05 -3.803591e-05 5.404437e-28)
(3.902917e-05 -7.817744e-07 -2.18954e-30)
(6.82372e-05 -3.344435e-06 -8.733246e-30)
(7.502676e-05 -7.258314e-06 1.866187e-27)
(7.568521e-05 -1.314698e-05 1.225943e-27)
(7.486557e-05 -2.013413e-05 -9.872887e-28)
(7.065527e-05 -2.873068e-05 1.438002e-27)
(6.593309e-05 -4.146224e-05 0)
(4.382264e-05 8.860828e-07 0)
(7.950791e-05 6.065004e-07 0)
(8.918581e-05 -2.072206e-06 2.121625e-27)
(9.152019e-05 -7.888428e-06 2.280712e-27)
(9.37788e-05 -1.516409e-05 3.264799e-27)
(9.145809e-05 -2.668349e-05 2.98079e-27)
(9.164433e-05 -5.376995e-05 0)
(5.112434e-05 3.072609e-06 -4.315647e-30)
(9.594708e-05 6.822274e-06 1.891663e-29)
(0.0001084283 7.811123e-06 6.051578e-29)
(0.0001125505 7.816684e-07 0)
(0.0001154933 -5.332167e-06 4.900223e-27)
(0.0001283899 -2.637242e-05 -3.045458e-28)
(0.0001461469 -8.558403e-05 -8.694705e-28)
(7.128341e-05 4.023079e-06 -2.104719e-27)
(0.0001190594 1.350265e-05 2.609168e-29)
(0.0001264845 2.589371e-05 -2.755253e-27)
(0.0001409017 2.507242e-05 0)
(0.0001633858 1.83519e-06 3.230008e-27)
(0.0002131365 -5.409936e-05 2.156952e-27)
(0.0002681474 -0.0001557911 -5.711878e-27)
(7.319472e-05 9.861511e-06 -2.459545e-27)
(0.0001209154 3.105334e-05 -3.048822e-27)
(0.0001683817 4.148215e-05 -3.03195e-27)
(0.0002099467 3.57795e-05 -1.311646e-28)
(0.0002716969 -1.744938e-06 -4.064647e-28)
(0.000380681 -9.88698e-05 4.905952e-27)
(0.0005063197 -0.000269087 -3.665611e-27)
(6.978444e-05 1.59343e-05 0)
(0.0001657426 4.109493e-05 3.366628e-27)
(0.0002316947 5.874083e-05 3.524357e-27)
(0.0003072634 5.096615e-05 5.856278e-29)
(0.0004616505 -2.405938e-05 -6.006169e-27)
(0.0006629178 -0.0001640794 -4.752292e-28)
(0.0009020412 -0.0004117909 0)
(0.0001106854 1.624326e-05 2.852327e-27)
(0.0001964134 5.9286e-05 7.315119e-27)
(0.0002994838 7.992416e-05 4.074698e-27)
(0.000492146 3.822398e-05 1.068465e-26)
(0.0007459133 -5.582709e-05 -7.943022e-27)
(0.00105594 -0.0002214334 1.143604e-26)
(0.001428861 -0.0005112533 5.063018e-25)
(0.000151543 1.196629e-05 3.166592e-27)
(0.0002435244 7.086826e-05 -2.265212e-29)
(0.0004138872 8.589961e-05 0)
(0.0007127561 2.588876e-05 6.108969e-29)
(0.001066919 -7.632347e-05 1.889269e-26)
(0.001465712 -0.0002368038 -6.161286e-26)
(0.001922176 -0.0005118266 7.330848e-25)
(0.000131017 2.473432e-05 -3.33547e-27)
(0.0002962452 7.64904e-05 -1.114637e-29)
(0.0005566445 7.15994e-05 -3.059051e-29)
(0.0009176612 1.624043e-05 -1.437782e-26)
(0.00133793 -7.399985e-05 -2.371317e-25)
(0.001787248 -0.0002044444 -3.225147e-26)
(0.002265585 -0.000424411 6.037955e-25)
(0.0001307692 3.338369e-05 -3.268245e-27)
(0.0003352029 7.689743e-05 0)
(0.0006367854 7.232452e-05 -1.095189e-28)
(0.00103598 2.138298e-05 2.881027e-25)
(0.001499213 -5.384634e-05 -3.55039e-25)
(0.001969107 -0.0001460651 -3.340079e-25)
(0.002438042 -0.0003123924 1.765815e-25)
(9.356992e-05 4.375009e-05 0)
(0.0003261278 8.54566e-05 -5.261555e-29)
(0.0006288958 8.914425e-05 7.458692e-26)
(0.001043095 4.144547e-05 2.050938e-25)
(0.001524925 -2.267555e-05 -2.993241e-26)
(0.002010425 -9.808411e-05 -8.372459e-25)
(0.002444021 -0.0002248849 -1.758369e-24)
(0.0001438885 2.643651e-05 0)
(0.0003053005 9.31828e-05 -1.623998e-25)
(0.0005462927 0.0001170295 1.457154e-25)
(0.0009291904 7.452017e-05 2.674573e-25)
(0.001411165 1.256217e-05 2.094173e-25)
(0.001890219 -7.045934e-05 -7.039367e-26)
(0.002315131 -0.000221444 -1.21979e-24)
(0.0001561908 2.071985e-05 -2.984001e-27)
(0.0003123297 8.33558e-05 -8.130963e-26)
(0.0004495436 0.0001244364 2.479432e-25)
(0.0007531121 0.0001018061 1.136253e-25)
(0.001171579 4.117775e-05 1.1185e-25)
(0.001635091 -7.153373e-05 -1.461931e-25)
(0.002030514 -0.0002850548 -1.149499e-25)
(0.0001051663 2.708183e-05 -2.773132e-27)
(0.0002857637 6.527945e-05 1.972861e-25)
(0.0003736184 0.0001148854 4.452608e-25)
(0.0005580858 0.0001271893 -2.826194e-25)
(0.0008863435 4.992688e-05 1.372799e-25)
(0.001284061 -0.0001122786 5.398371e-25)
(0.001646321 -0.0004511296 7.139086e-25)
(9.067159e-05 2.000436e-05 -3.790837e-26)
(0.0002284569 5.75773e-05 2.243671e-25)
(0.0002844215 0.0001055848 2.078924e-25)
(0.0004062581 0.0001101624 -7.736876e-26)
(0.0006280291 3.451762e-05 -4.250382e-25)
(0.0009379244 -0.0001955536 -2.310237e-25)
(0.001229849 -0.0007784022 -1.69399e-24)
(7.893951e-05 1.304612e-05 -1.506906e-25)
(0.0001487538 5.377931e-05 -2.96714e-26)
(0.0001940129 8.715746e-05 3.332482e-27)
(0.0002778304 8.239817e-05 -3.809108e-26)
(0.0004314871 -2.07033e-05 -9.242398e-26)
(0.0006556353 -0.000370541 3.17966e-25)
(0.0007918154 -0.00129534 1.268204e-24)
(5.003425e-05 1.572618e-05 -1.060381e-25)
(9.092199e-05 4.218704e-05 -5.616289e-26)
(0.0001239916 5.330764e-05 8.326076e-26)
(0.000171328 2.795445e-05 -4.955202e-26)
(0.0002683244 -0.000142966 1.600954e-25)
(0.0003912277 -0.0007135658 3.506006e-25)
(0.0003495602 -0.002074439 -5.605535e-25)
(2.709799e-05 9.298693e-06 1.78907e-26)
(4.593635e-05 3.059913e-05 -1.989564e-26)
(4.987839e-05 2.779268e-05 -3.722424e-26)
(6.302554e-05 -4.928269e-05 9.66737e-26)
(8.294355e-05 -0.00036463 2.749139e-25)
(7.374733e-05 -0.001241345 4.055614e-24)
(-0.000123239 -0.003073024 7.082223e-24)
(1.594248e-05 1.058e-05 1.577059e-27)
(1.126382e-05 1.677855e-05 -5.765786e-27)
(-1.339859e-05 -1.394682e-05 -5.726227e-26)
(-5.950556e-05 -0.0001644224 2.099816e-26)
(-0.0001477315 -0.000624333 7.482508e-26)
(-0.000294295 -0.001699078 -9.578293e-25)
(-0.0006311408 -0.003921558 -1.073833e-24)
(5.536483e-06 7.72928e-06 -1.176091e-26)
(-1.037409e-05 1.206324e-06 1.591953e-26)
(-6.082748e-05 -6.871115e-05 -2.88942e-26)
(-0.000162615 -0.0003103837 9.334314e-26)
(-0.0003229397 -0.0008685143 7.224035e-27)
(-0.0005402846 -0.001982834 -8.159182e-27)
(-0.000924587 -0.004136547 -2.563561e-24)
(-1.90992e-06 2.624912e-06 -1.005271e-26)
(-2.640561e-05 -2.028891e-05 1.944285e-26)
(-9.506075e-05 -0.0001442731 -3.679964e-26)
(-0.0002201532 -0.0004629489 -4.634748e-26)
(-0.0004000976 -0.00107836 -5.331684e-25)
(-0.0006342717 -0.002192217 -1.474722e-24)
(-0.001049471 -0.004258906 -2.572897e-25)
(-9.529214e-06 1.881785e-06 -2.582165e-27)
(-4.098309e-05 -5.010752e-05 -1.837308e-26)
(-0.0001085846 -0.0002179719 -5.412598e-26)
(-0.0002235248 -0.0005936813 2.205206e-26)
(-0.0003797956 -0.001239244 -2.667926e-25)
(-0.0005774784 -0.00232049 -1.246259e-24)
(-0.0009257465 -0.004384881 -1.453852e-25)
(-1.547508e-05 -2.264098e-06 -6.846912e-27)
(-4.728343e-05 -7.562952e-05 -2.567616e-26)
(-0.000101147 -0.0002820221 -2.284624e-26)
(-0.0001787506 -0.0006860773 -4.184865e-26)
(-0.0002845796 -0.001332986 -3.160626e-25)
(-0.0004126435 -0.002391259 -1.099368e-24)
(-0.0003815836 -0.004503498 -1.897725e-24)
(-1.98624e-05 -7.622173e-06 -4.7221e-27)
(-5.266674e-05 -0.0001014406 1.138442e-26)
(-8.211143e-05 -0.0003315576 2.082795e-26)
(-0.0001122162 -0.00073336 9.603788e-27)
(-0.0001620306 -0.001343878 -2.181387e-26)
(-0.0002186416 -0.002367871 -6.464461e-27)
(-5.012043e-05 -0.004231084 -5.362634e-26)
(-2.892995e-05 -1.873e-05 -1.918276e-27)
(-6.257385e-05 -0.0001348601 2.936911e-26)
(-6.729871e-05 -0.0003702906 6.724417e-26)
(-5.868569e-05 -0.0007476833 -1.195802e-25)
(-7.296957e-05 -0.001305381 -9.795008e-26)
(-0.0001143348 -0.002244526 -3.158091e-25)
(9.70303e-06 -0.004020226 -1.507694e-24)
(-4.264273e-05 -3.370598e-05 -7.138861e-27)
(-7.836361e-05 -0.0001714803 3.084311e-26)
(-6.381683e-05 -0.0004001363 1.992217e-26)
(-3.239558e-05 -0.0007390432 -2.426711e-25)
(-2.990302e-05 -0.001233558 -6.898076e-25)
(-8.052113e-05 -0.002065938 -2.384171e-24)
(-6.619102e-05 -0.003640269 -1.53654e-24)
(-6.015945e-05 -5.170625e-05 -3.63231e-26)
(-9.997848e-05 -0.000207712 6.452372e-26)
(-7.32302e-05 -0.0004233632 8.864887e-26)
(-2.790571e-05 -0.0007125148 3.973644e-26)
(-2.102527e-05 -0.001131047 -1.700538e-24)
(-8.881596e-05 -0.00183421 -4.270168e-24)
(-0.0001497715 -0.003126623 6.408752e-25)
(-8.040674e-05 -7.031989e-05 -6.938682e-26)
(-0.0001247523 -0.0002386868 1.129123e-25)
(-8.74411e-05 -0.0004272272 -1.745407e-25)
(-3.032934e-05 -0.0006581779 6.448529e-26)
(-1.958123e-05 -0.0009817748 5.532221e-25)
(-0.0001065853 -0.001538984 2.152968e-25)
(-0.0002352269 -0.00260839 1.254011e-24)
(-9.810963e-05 -8.347047e-05 -1.465644e-25)
(-0.0001485849 -0.0002564441 -1.815949e-26)
(-0.0001092095 -0.0004203401 1.572761e-25)
(-5.315741e-05 -0.0005999257 6.560863e-26)
(-4.9163e-05 -0.0008499624 -1.028497e-25)
(-0.0001618935 -0.001302913 -6.571697e-25)
(-0.0003650398 -0.002205172 -3.035808e-24)
(-0.0001088325 -8.815077e-05 -4.867005e-26)
(-0.0001683797 -0.0002578081 -1.075782e-25)
(-0.0001354178 -0.0004027213 -3.283035e-25)
(-8.741926e-05 -0.0005456196 -9.14219e-26)
(-9.67445e-05 -0.0007400475 -4.313874e-25)
(-0.0002322857 -0.001111024 -2.305644e-25)
(-0.0004926398 -0.001890326 3.778308e-24)
(-0.0001099944 -8.393852e-05 7.359311e-27)
(-0.0001816714 -0.0002440199 -1.867025e-25)
(-0.0001617809 -0.0003757286 -3.547356e-25)
(-0.0001253938 -0.0004950728 1.434698e-26)
(-0.0001465057 -0.0006494555 1.490726e-25)
(-0.0002918321 -0.0009445663 -3.537939e-25)
(-0.000563097 -0.001576821 -1.312003e-24)
(-0.0001029426 -7.265183e-05 -5.385571e-27)
(-0.0001850211 -0.0002162787 -4.499692e-26)
(-0.0001838071 -0.0003374389 -3.124422e-25)
(-0.0001589171 -0.0004446167 4.347517e-26)
(-0.000173384 -0.0005679263 2.993549e-25)
(-0.0003038869 -0.0007962291 -2.012696e-25)
(-0.0005794188 -0.001312023 -1.422046e-24)
(-9.16773e-05 -5.60635e-05 0)
(-0.000180607 -0.0001759614 -2.220105e-26)
(-0.0001976303 -0.0002857843 -4.140975e-25)
(-0.0001814007 -0.0003861536 -1.841217e-25)
(-0.0001904818 -0.0004968928 -3.023551e-26)
(-0.000301187 -0.0006808099 -3.707094e-25)
(-0.0005709268 -0.001097 1.324908e-24)
(-8.243273e-05 -3.554962e-05 0)
(-0.0001687456 -0.0001254571 5.15913e-29)
(-0.0001976369 -0.0002211053 -1.010589e-25)
(-0.0001952028 -0.000316104 -1.650405e-25)
(-0.0002066339 -0.0004242879 7.051767e-26)
(-0.0003019907 -0.0005868671 6.077863e-25)
(-0.0005233963 -0.0009058041 7.279434e-25)
(-8.028229e-05 -1.258756e-05 -3.159528e-27)
(-0.0001567919 -7.530692e-05 0)
(-0.0001857848 -0.0001518314 0)
(-0.0001970927 -0.0002348739 -1.24919e-26)
(-0.0002157544 -0.0003382293 -3.110176e-26)
(-0.0002872333 -0.0004883282 -9.932728e-26)
(-0.0004505613 -0.000745356 1.051516e-24)
(-7.592111e-05 -1.169681e-05 -2.87376e-27)
(-0.000143742 -5.080654e-05 -1.50344e-29)
(-0.0001704405 -9.899321e-05 -3.952256e-29)
(-0.0001867768 -0.0001561636 -5.298749e-28)
(-0.0002086865 -0.0002382377 -1.226668e-25)
(-0.0002589428 -0.0003737545 -5.142588e-25)
(-0.0003667195 -0.0005848684 6.263698e-25)
(-7.024796e-05 -1.4412e-05 0)
(-0.0001327243 -3.559806e-05 3.489034e-27)
(-0.000155736 -6.176527e-05 0)
(-0.0001667997 -9.750228e-05 -1.768987e-28)
(-0.00018428 -0.0001477152 -3.078264e-28)
(-0.0002210508 -0.0002488157 -2.418535e-25)
(-0.000287537 -0.0004198777 2.288516e-25)
(-6.728843e-05 -1.282662e-05 0)
(-0.0001268447 -3.814924e-05 -3.222785e-27)
(-0.0001438541 -5.129726e-05 3.266664e-27)
(-0.0001494927 -6.639216e-05 0)
(-0.0001590224 -8.841496e-05 -5.209179e-28)
(-0.0001813243 -0.0001434037 3.666014e-27)
(-0.0002204775 -0.0002585573 1.30242e-26)
(-6.513277e-05 -1.205788e-05 0)
(-0.0001184312 -3.100072e-05 -8.758979e-27)
(-0.0001339905 -4.450466e-05 -3.74742e-30)
(-0.000136867 -5.59185e-05 -5.901132e-27)
(-0.0001405491 -6.543442e-05 -4.848554e-28)
(-0.0001521988 -8.690397e-05 3.337752e-27)
(-0.0001720227 -0.000139795 -3.666012e-27)
(-5.918492e-05 -9.455377e-06 2.114576e-27)
(-0.0001098843 -2.639185e-05 -2.675395e-27)
(-0.0001256051 -3.890619e-05 7.27554e-31)
(-0.0001275001 -4.667854e-05 -4.96975e-27)
(-0.0001288367 -5.428091e-05 0)
(-0.0001338096 -6.253539e-05 0)
(-0.0001402296 -8.582951e-05 -4.831248e-27)
(-5.387188e-05 -7.933196e-06 1.929471e-27)
(-0.0001005587 -2.279038e-05 -2.435726e-27)
(-0.0001156693 -3.443728e-05 2.387837e-27)
(-0.0001183189 -4.175032e-05 2.331299e-27)
(-0.0001198976 -4.891853e-05 0)
(-0.0001223306 -5.619111e-05 0)
(-0.0001225955 -6.466834e-05 -2.739855e-27)
(-4.777846e-05 -6.401757e-06 -1.765451e-27)
(-8.900347e-05 -1.903797e-05 -2.274384e-27)
(-0.0001024354 -2.947746e-05 -5.964131e-29)
(-0.0001063713 -3.754512e-05 2.01711e-27)
(-0.0001089329 -4.482808e-05 6.23595e-28)
(-0.0001112432 -5.250925e-05 -3.161296e-27)
(-0.0001086891 -5.866141e-05 1.490591e-27)
(-4.205103e-05 -5.216908e-06 -1.608274e-27)
(-7.709152e-05 -1.574184e-05 -1.735995e-29)
(-8.791549e-05 -2.486136e-05 5.710809e-29)
(-9.193843e-05 -3.274614e-05 8.152656e-29)
(-9.537723e-05 -4.028174e-05 0)
(-9.777001e-05 -4.779224e-05 -1.963127e-27)
(-9.601189e-05 -5.370808e-05 1.598159e-27)
(-3.661023e-05 -4.176382e-06 0)
(-6.570455e-05 -1.28485e-05 -3.197178e-29)
(-7.39146e-05 -2.07002e-05 -5.420361e-29)
(-7.709098e-05 -2.801512e-05 3.984397e-27)
(-8.021345e-05 -3.502628e-05 7.323491e-28)
(-8.260838e-05 -4.206827e-05 2.825775e-27)
(-8.203912e-05 -4.763994e-05 1.128177e-27)
(-3.169761e-05 -3.319553e-06 -3.847686e-30)
(-5.557967e-05 -1.04304e-05 -1.508504e-29)
(-6.135898e-05 -1.705497e-05 0)
(-6.318546e-05 -2.343316e-05 -4.305527e-30)
(-6.522106e-05 -2.969361e-05 1.461819e-27)
(-6.786067e-05 -3.616233e-05 1.352955e-27)
(-6.807082e-05 -4.125003e-05 -2.529465e-28)
(-2.748179e-05 -2.678401e-06 1.18145e-27)
(-4.714461e-05 -8.576901e-06 -1.503958e-27)
(-5.084169e-05 -1.418557e-05 2.661673e-27)
(-5.124332e-05 -1.953368e-05 -3.071437e-27)
(-5.254297e-05 -2.503088e-05 1.212528e-27)
(-5.514335e-05 -3.091402e-05 0)
(-5.584676e-05 -3.559043e-05 2.295153e-28)
(-2.394104e-05 -2.22212e-06 1.068158e-27)
(-4.029601e-05 -7.228213e-06 -1.318187e-27)
(-4.223564e-05 -1.192273e-05 1.284169e-27)
(-4.146308e-05 -1.646046e-05 0)
(-4.244122e-05 -2.130039e-05 -1.153987e-27)
(-4.494067e-05 -2.663291e-05 0)
(-4.602595e-05 -3.101684e-05 9.812075e-28)
(-2.097088e-05 -1.900466e-06 0)
(-3.465871e-05 -6.22374e-06 0)
(-3.533047e-05 -1.026501e-05 -2.299248e-27)
(-3.407094e-05 -1.417575e-05 0)
(-3.477656e-05 -1.843508e-05 -2.057166e-27)
(-3.706459e-05 -2.320375e-05 -9.553305e-28)
(-3.834243e-05 -2.726574e-05 8.72909e-28)
(-1.854969e-05 -1.69519e-06 -8.623264e-28)
(-3.003564e-05 -5.509099e-06 0)
(-3.004757e-05 -9.061821e-06 -1.007298e-27)
(-2.856503e-05 -1.247287e-05 1.00058e-27)
(-2.900479e-05 -1.616573e-05 -9.170654e-28)
(-3.100281e-05 -2.031685e-05 -1.700163e-27)
(-3.235461e-05 -2.396513e-05 -7.79362e-28)
(-1.643526e-05 -1.540744e-06 -7.722284e-28)
(-2.62158e-05 -4.990365e-06 -9.461281e-28)
(-2.592041e-05 -8.156374e-06 0)
(-2.436938e-05 -1.113058e-05 9.145662e-28)
(-2.457481e-05 -1.42712e-05 5.516611e-29)
(-2.625041e-05 -1.779769e-05 -1.581427e-27)
(-2.755454e-05 -2.103039e-05 -2.284892e-28)
(-1.457209e-05 -1.423099e-06 -6.917061e-28)
(-2.306243e-05 -4.579099e-06 -8.481855e-28)
(-2.262726e-05 -7.430176e-06 8.174238e-28)
(-2.108085e-05 -1.00181e-05 0)
(-2.109741e-05 -1.266234e-05 0)
(-2.251341e-05 -1.570263e-05 -6.781796e-28)
(-2.393694e-05 -1.898975e-05 1.157606e-27)
(-1.294352e-05 -1.325259e-06 -6.1768e-28)
(-2.040034e-05 -4.234055e-06 -7.573909e-28)
(-1.992051e-05 -6.815531e-06 7.291755e-28)
(-1.842745e-05 -9.061868e-06 0)
(-1.828695e-05 -1.124415e-05 4.441536e-29)
(-1.940961e-05 -1.375237e-05 8.299035e-32)
(-2.071102e-05 -1.673311e-05 -6.313958e-29)
(-1.15112e-05 -1.238014e-06 0)
(-1.811206e-05 -3.929457e-06 -6.756017e-28)
(-1.764581e-05 -6.281818e-06 6.510436e-28)
(-1.624831e-05 -8.244465e-06 0)
(-1.600181e-05 -1.003389e-05 -6.205702e-28)
(-1.68369e-05 -1.202631e-05 -9.54615e-29)
(-1.785507e-05 -1.447102e-05 -5.635757e-29)
(-1.02443e-05 -1.156162e-06 4.917639e-28)
(-1.611565e-05 -3.650816e-06 -3.143573e-30)
(-1.570003e-05 -5.810612e-06 5.751311e-28)
(-1.443742e-05 -7.556708e-06 -1.417561e-29)
(-1.416065e-05 -9.058471e-06 -1.738788e-29)
(-1.479551e-05 -1.065171e-05 -4.814466e-28)
(-1.55314e-05 -1.256838e-05 0)
(-9.11645e-06 -1.076059e-06 8.763006e-28)
(-1.435249e-05 -3.386593e-06 0)
(-1.400638e-05 -5.38166e-06 0)
(-1.290546e-05 -6.970028e-06 5.046973e-28)
(-1.2672e-05 -8.291237e-06 9.413954e-28)
(-1.320401e-05 -9.632567e-06 -4.339357e-28)
(-1.367452e-05 -1.10843e-05 0)
(-8.109138e-06 -9.95325e-07 3.900609e-28)
(-1.278241e-05 -3.127531e-06 -2.516448e-30)
(-1.250708e-05 -4.972344e-06 -4.144927e-30)
(-1.156583e-05 -6.432804e-06 -1.162639e-29)
(-1.138998e-05 -7.61896e-06 3.9826e-28)
(-1.185423e-05 -8.762905e-06 0)
(-1.210654e-05 -9.900175e-06 -3.434131e-28)
(-7.207842e-06 -9.13495e-07 -2.989375e-31)
(-1.137661e-05 -2.870013e-06 -4.289745e-28)
(-1.11635e-05 -4.57104e-06 -4.137508e-28)
(-1.036527e-05 -5.919367e-06 -7.797567e-28)
(-1.023842e-05 -7.000902e-06 0)
(-1.064423e-05 -8.001303e-06 -3.40509e-28)
(-1.081901e-05 -8.955651e-06 3.776234e-31)
(-6.401156e-06 -8.316605e-07 -3.083589e-28)
(-1.011525e-05 -2.615999e-06 -7.578262e-28)
(-9.954021e-06 -4.177727e-06 -7.325818e-28)
(-9.283342e-06 -5.423352e-06 -3.558886e-28)
(-9.203095e-06 -6.421908e-06 -1.14833e-29)
(-9.552373e-06 -7.305849e-06 -3.025997e-28)
(-9.694035e-06 -8.137631e-06 2.862254e-28)
(-5.679708e-06 -7.518646e-07 -2.742612e-28)
(-8.983496e-06 -2.370137e-06 -6.72755e-28)
(-8.864626e-06 -3.797891e-06 -3.241667e-28)
(-8.31016e-06 -4.949456e-06 0)
(-8.271239e-06 -5.881834e-06 -7.896831e-29)
(-8.541025e-06 -6.640545e-06 -1.196583e-28)
(-8.661802e-06 -7.378983e-06 -2.776748e-29)
(-5.034284e-06 -6.758037e-07 -2.438801e-28)
(-7.96665e-06 -2.136198e-06 -2.980004e-28)
(-7.876878e-06 -3.433767e-06 7.941695e-30)
(-7.411285e-06 -4.486801e-06 7.308031e-30)
(-7.391782e-06 -5.339223e-06 0)
(-7.57284e-06 -5.999566e-06 -2.382688e-28)
(-7.701452e-06 -6.670168e-06 1.241508e-29)
(-4.45695e-06 -6.051433e-07 -2.164501e-28)
(-7.053212e-06 -1.918945e-06 -2.646144e-28)
(-6.981135e-06 -3.094079e-06 4.74421e-30)
(-6.579691e-06 -4.051921e-06 3.272971e-30)
(-6.564615e-06 -4.827049e-06 0)
(-6.708112e-06 -5.420237e-06 -2.01015e-28)
(-6.82978e-06 -6.029466e-06 2.224554e-29)
(-3.940702e-06 -5.408348e-07 1.722591e-31)
(-6.234296e-06 -1.72158e-06 -4.698841e-28)
(-6.173554e-06 -2.78539e-06 2.124622e-30)
(-5.823068e-06 -3.656298e-06 2.935513e-30)
(-5.807922e-06 -4.361705e-06 0)
(-5.930128e-06 -4.90279e-06 0)
(-6.037745e-06 -5.457174e-06 0)
(-3.479311e-06 -4.834557e-07 0)
(-5.501857e-06 -1.545713e-06 -2.083247e-28)
(-5.450569e-06 -2.510991e-06 0)
(-5.144409e-06 -3.30638e-06 1.871722e-28)
(-5.12175e-06 -3.947144e-06 -6.733509e-30)
(-5.224487e-06 -4.44424e-06 -7.907088e-30)
(-5.317432e-06 -4.952515e-06 1.404491e-28)
(-3.066786e-06 -4.328145e-07 -1.501222e-28)
(-4.847124e-06 -1.391025e-06 0)
(-4.805909e-06 -2.271607e-06 3.434781e-30)
(-4.536878e-06 -3.006126e-06 1.395352e-28)
(-4.494988e-06 -3.580238e-06 -2.079658e-28)
(-4.579947e-06 -4.041176e-06 0)
(-4.662004e-06 -4.514268e-06 1.320749e-28)
(-2.697129e-06 -3.881845e-07 -1.323949e-28)
(-4.258591e-06 -1.2546e-06 0)
(-4.221131e-06 -2.059214e-06 1.555688e-30)
(-3.978901e-06 -2.735874e-06 2.175645e-30)
(-3.910589e-06 -3.259586e-06 -2.813635e-28)
(-3.990812e-06 -3.694633e-06 1.290252e-28)
(-4.066567e-06 -4.141594e-06 -1.166496e-28)
(-2.36529e-06 -3.490394e-07 0)
(-3.727806e-06 -1.135466e-06 -1.420485e-28)
(-3.68794e-06 -1.874569e-06 1.410016e-30)
(-3.466429e-06 -2.501413e-06 1.326127e-28)
(-3.392068e-06 -2.991431e-06 -1.233971e-28)
(-3.461717e-06 -3.407043e-06 1.133607e-28)
(-3.527945e-06 -3.832675e-06 8.924125e-32)
(-2.066483e-06 -3.149348e-07 0)
(-3.248251e-06 -1.032431e-06 -1.251845e-28)
(-3.203007e-06 -1.716677e-06 1.21167e-28)
(-2.999324e-06 -2.303951e-06 1.178082e-28)
(-2.925761e-06 -2.771502e-06 -1.058652e-28)
(-2.983353e-06 -3.173796e-06 5.252139e-30)
(-3.039815e-06 -3.583867e-06 8.977223e-29)
(-1.796175e-06 -2.857017e-07 0)
(-2.812439e-06 -9.44569e-07 0)
(-2.759879e-06 -1.584302e-06 1.05542e-28)
(-2.571551e-06 -2.142288e-06 -1.010931e-28)
(-2.500289e-06 -2.596054e-06 5.788066e-32)
(-2.547288e-06 -2.991271e-06 0)
(-2.595766e-06 -3.391509e-06 0)
(-1.549925e-06 -2.608411e-07 -7.703773e-29)