/*--------------------------------*- C++ -*----------------------------------*\
| =========                 |                                                 |
| \\      /  F ield         | OpenFOAM: The Open Source CFD Toolbox           |
|  \\    /   O peration     | Version:  2206                                  |
|   \\  /    A nd           | Website:  www.openfoam.com                      |
|    \\/     M anipulation  |                                                 |
\*---------------------------------------------------------------------------*/
FoamFile
{
    version     2.0;
    format      ascii;
    arch        "LSB;label=32;scalar=64";
    class       surfaceVectorField;
    location    "2.4";
    object      ddtCorrDdt0(Ufb);
}
// * * * * * * * * * * * * * * * * * * * * * * * * * * * * * * * * * * * * * //

dimensions      [0 1 -2 0 0 0 0];

internalField   nonuniform List<vector> 
26037
(
(0.0001727433 -0.0002553601 -1.356663e-22)
(0.000271923 -9.313766e-05 3.187345e-27)
(0.0001539802 -0.0004527233 -3.931111e-22)
(0.0002557248 -0.0003534191 1.23838e-24)
(0.00014155 -0.0006360819 -1.553489e-26)
(0.0002231394 -0.0005193933 -1.557017e-26)
(0.0001345299 -0.0008198751 -1.401623e-26)
(0.0002258488 -0.0007328121 0)
(0.000126274 -0.00100604 5.956752e-24)
(0.000221112 -0.0009220689 -1.421207e-26)
(0.0001153449 -0.001178724 -3.621705e-26)
(0.0002058017 -0.001099629 -1.581862e-25)
(0.0001864779 -0.00126649 -1.959442e-26)
(0.0001023127 -0.001336416 5.566795e-23)
(0.0003504006 -0.0001994016 -2.127587e-28)
(0.0005160861 -9.739604e-05 2.14538e-26)
(0.0003357361 -0.0003988311 -2.148036e-28)
(0.0004622399 -0.0002933131 -2.035451e-26)
(0.0003253961 -0.0006301833 0)
(0.0004454585 -0.000514812 7.541031e-27)
(0.0003182658 -0.0008289885 -1.975725e-28)
(0.0004180117 -0.0007354924 2.21583e-26)
(0.0003025208 -0.001018503 -2.915175e-28)
(0.0004052016 -0.0009351682 -8.494885e-25)
(0.00027846 -0.001195205 -2.704524e-28)
(0.0003782563 -0.001120973 -9.400738e-29)
(0.0003442994 -0.0012925 -4.508467e-25)
(0.0002501796 -0.001355916 -2.209579e-26)
(0.0005864404 -0.0001872861 1.203885e-27)
(0.0007270436 -9.880158e-05 -1.870574e-22)
(0.0005577185 -0.0004107783 -1.291889e-26)
(0.0006943351 -0.0003099832 6.872511e-23)
(0.0005353439 -0.0006322398 -4.407654e-23)
(0.0006639876 -0.0005308792 -4.334722e-26)
(0.0005151967 -0.0008450706 -3.481601e-23)
(0.0006242751 -0.000751562 -1.469806e-27)
(0.0004847303 -0.001044226 1.457638e-26)
(0.0005990508 -0.0009634381 9.03969e-25)
(0.0004465645 -0.00122693 -1.150117e-31)
(0.0005568822 -0.001157202 0)
(0.0005078992 -0.001335397 5.51832e-25)
(0.0004024638 -0.001393215 2.286873e-26)
(0.0008228032 -0.0002115107 -2.624018e-26)
(0.0009476095 -0.0001103943 2.829873e-26)
(0.0007936722 -0.0004353034 -1.060581e-25)
(0.0009253284 -0.0003358364 -5.639073e-23)
(0.0007572888 -0.0006580143 -1.749334e-24)
(0.0008907841 -0.0005646449 -1.138637e-22)
(0.0007177649 -0.0008805587 -2.323922e-26)
(0.0008466679 -0.0007883032 -3.248226e-23)
(0.0006742764 -0.0010848 7.679957e-28)
(0.0007982165 -0.001004716 1.317305e-26)
(0.0006215975 -0.00127533 3.397517e-28)
(0.0007434721 -0.001209058 -1.538362e-30)
(0.000678495 -0.001396021 2.110944e-26)
(0.0005606243 -0.001448385 -2.303965e-26)
(0.001056819 -0.000232384 2.895654e-26)
(0.001186782 -0.0001204164 -5.356965e-29)
(0.001028098 -0.0004672702 1.145559e-24)
(0.001167472 -0.0003632354 -3.45994e-26)
(0.000985103 -0.0007000785 -1.309059e-25)
(0.001128067 -0.0006049476 -6.69746e-26)
(0.0009321369 -0.0009250871 6.645139e-24)
(0.001078404 -0.0008403726 -3.800977e-23)
(0.000872605 -0.001138724 6.031467e-23)
(0.001013034 -0.001063723 5.050026e-23)
(0.000805178 -0.001340337 -5.913273e-23)
(0.0009411759 -0.001275832 -1.937934e-26)
(0.0008588316 -0.001474933 -1.999077e-24)
(0.0007265788 -0.00152295 2.076965e-26)
(0.001305601 -0.0002522636 3.524907e-28)
(0.001446317 -0.000131271 0)
(0.001275054 -0.0004999857 4.323089e-25)
(0.0014229 -0.0003932714 -4.943272e-26)
(0.001227258 -0.0007535654 7.553209e-24)
(0.00138675 -0.0006511705 -5.849404e-26)
(0.001164346 -0.0009890184 -6.131819e-24)
(0.001321241 -0.000901723 -5.230189e-26)
(0.001086823 -0.001212464 -1.740267e-26)
(0.001244714 -0.001142553 -9.220232e-23)
(0.0009997327 -0.001422428 6.764353e-23)
(0.001153797 -0.001364123 -1.703201e-26)
(0.001051532 -0.001571965 -4.689994e-26)
(0.0009031116 -0.001617286 7.08687e-23)
(0.001575915 -0.0002731366 -4.975927e-26)
(0.001727527 -0.0001427376 1.188252e-25)
(0.001541346 -0.0005466912 -1.076962e-25)
(0.001705261 -0.0004267238 -1.181286e-22)
(0.001486644 -0.0008084576 3.307694e-23)
(0.001657554 -0.0007058588 -9.502e-23)
(0.001411975 -0.001065264 -5.518165e-26)
(0.001586641 -0.0009763225 -1.356487e-26)
(0.00131936 -0.001304978 -6.416947e-24)
(0.00149372 -0.001235785 -1.441313e-25)
(0.001211684 -0.001526967 2.654346e-27)
(0.001385812 -0.001475478 5.500895e-27)
(0.001261557 -0.001694451 3.267294e-27)
(0.001091727 -0.00173236 -1.123112e-27)
(0.001869567 -0.0003002794 6.03918e-26)
(0.002036903 -0.0001551751 2.638237e-22)
(0.001831187 -0.0005925915 -1.151807e-25)
(0.002007338 -0.0004653911 7.681539e-26)
(0.001767486 -0.0008781352 -5.728663e-26)
(0.001953368 -0.0007695517 1.05342e-26)
(0.001678629 -0.0011565 -1.033563e-25)
(0.001871471 -0.001065047 2.034541e-27)
(0.001570366 -0.001417048 -9.973384e-26)
(0.001764545 -0.001346167 -2.481754e-22)
(0.001443822 -0.001658213 -1.112729e-23)
(0.001638376 -0.001606538 5.938101e-27)
(0.001490439 -0.001845523 3.289884e-27)
(0.001298442 -0.001874731 -2.583652e-26)
(0.002188983 -0.0003255097 1.352377e-25)
(0.002372599 -0.0001706944 -3.496133e-22)
(0.002144427 -0.0006473882 2.025163e-25)
(0.002340293 -0.0005109039 3.519467e-22)
(0.002071867 -0.0009594492 -3.988766e-24)
(0.002277007 -0.0008439077 1.74931e-22)
(0.001969395 -0.00126504 -2.356064e-25)
(0.002184209 -0.001167534 -1.421908e-25)
(0.001843486 -0.001548561 -9.366644e-24)
(0.002059737 -0.001475238 -2.881487e-22)
(0.001695336 -0.001809492 3.088538e-27)
(0.001912284 -0.001760539 3.087586e-27)
(0.001740974 -0.002021314 0)
(0.001525964 -0.002045977 4.636659e-26)
(0.002540449 -0.0003582421 -2.740483e-27)
(0.002742344 -0.0001884561 -1.581884e-25)
(0.002489474 -0.0007121252 2.312088e-25)
(0.002706711 -0.0005636639 1.555343e-25)
(0.002406138 -0.001056109 -6.618069e-26)
(0.002634112 -0.0009297521 2.483037e-25)
(0.002287977 -0.001391321 -1.432225e-25)
(0.002527637 -0.001286016 -3.409777e-22)
(0.002141779 -0.001701474 -7.751775e-29)
(0.002383184 -0.001625428 3.404317e-22)
(0.001970137 -0.001987499 0)
(0.002213067 -0.001938968 0)
(0.002015309 -0.002224939 0)
(0.001773854 -0.002245865 6.198985e-26)
(0.002928208 -0.0003965013 0)
(0.003151862 -0.0002084122 0)
(0.002870668 -0.000787852 1.725561e-25)
(0.003112254 -0.000623647 -2.019753e-25)
(0.002774602 -0.001168304 1.172982e-26)
(0.003029481 -0.00102898 4.42455e-22)
(0.002638074 -0.001536103 -1.634725e-25)
(0.002904916 -0.001423148 1.972935e-26)
(0.002469945 -0.001877829 8.832309e-29)
(0.002740037 -0.001798194 -3.976224e-22)
(0.002272413 -0.002192954 0)
(0.002544983 -0.002144234 0)
(0.00231776 -0.002459601 1.621271e-25)
(0.002046375 -0.00247723 -6.07563e-26)
(0.003357912 -0.0004408166 -2.018912e-25)
(0.003607509 -0.0002314396 0)
(0.003292132 -0.0008729248 -5.918881e-27)
(0.003560464 -0.0006925445 -5.413941e-22)
(0.003181974 -0.001292839 3.810333e-25)
(0.003466341 -0.001143016 1.942233e-25)
(0.003025372 -0.001701739 9.308633e-24)
(0.003324702 -0.001580343 4.660058e-22)
(0.00283296 -0.002080485 -1.812598e-25)
(0.003136019 -0.001995812 -3.827244e-25)
(0.002606625 -0.002429102 1.620713e-25)
(0.002912735 -0.002379462 1.88087e-25)
(0.002652843 -0.002728835 3.726568e-22)
(0.002347651 -0.002743471 -2.963539e-23)
(0.003835206 -0.0004893876 -2.299475e-25)
(0.004113769 -0.0002582128 -2.626978e-25)
(0.003759617 -0.0009708147 6.143565e-24)
(0.004060284 -0.0007717498 -2.299851e-25)
(0.003634121 -0.001437697 2.073746e-25)
(0.003952536 -0.001272948 -4.472726e-27)
(0.003455834 -0.001891555 7.420088e-27)
(0.003791032 -0.001759243 2.087834e-25)
(0.003236132 -0.002312497 -1.305214e-26)
(0.003576623 -0.00222108 -5.340291e-22)
(0.002977575 -0.002699437 1.88229e-25)
(0.003321511 -0.002648192 4.684842e-22)
(0.003025381 -0.003036473 -4.253047e-22)
(0.002682073 -0.003048344 1.393397e-28)
(0.004367252 -0.0005460107 -2.627484e-25)
(0.004679051 -0.000288563 -6.972192e-22)
(0.004280908 -0.001082572 -2.345284e-27)
(0.004617841 -0.0008618589 0)
(0.004137454 -0.001602844 1.064334e-23)
(0.00449491 -0.001421287 -7.540275e-27)
(0.00393544 -0.002106825 -4.612445e-25)
(0.004310126 -0.001964457 3.148906e-25)
(0.003685597 -0.002577229 -2.417151e-25)
(0.004069476 -0.002474009 -6.786493e-22)
(0.003390512 -0.003007755 1.739709e-26)
(0.00377695 -0.002953704 2.123033e-25)
(0.003440662 -0.003386715 2.422418e-26)
(0.00305443 -0.003396071 -3.215657e-26)
(0.004961994 -0.0006103098 -2.962571e-25)
(0.005311397 -0.0003227724 -2.961206e-25)
(0.00486357 -0.001209771 -5.189074e-27)
(0.005241318 -0.000963707 -3.276105e-25)
(0.004698724 -0.001791695 1.865228e-23)
(0.005102722 -0.001588659 -5.190397e-27)
(0.004474671 -0.00234982 -2.042245e-22)
(0.004896798 -0.00219403 6.174847e-22)
(0.004190013 -0.002877316 -1.851078e-25)
(0.004625504 -0.002764126 -1.760408e-25)
(0.003851571 -0.003358148 2.191616e-25)
(0.004286483 -0.003300826 1.213209e-26)
(0.003904697 -0.003784455 5.492365e-22)
(0.003470024 -0.003791384 4.165574e-25)
(0.005627398 -0.0006828412 -3.274523e-25)
(0.006019464 -0.0003614224 0)
(0.005515547 -0.001353023 -3.276766e-25)
(0.005938975 -0.001078896 -8.812184e-22)
(0.005331699 -0.002002105 3.127229e-25)
(0.005781326 -0.001777791 -3.221573e-27)
(0.005079357 -0.002623485 -3.312815e-23)
(0.005548966 -0.002451031 3.085966e-25)
(0.004749709 -0.003217989 2.225363e-26)
(0.005241187 -0.003094656 1.009994e-26)
(0.004366806 -0.003755841 -4.018259e-23)
(0.004856206 -0.003694525 1.212682e-26)
(0.004423818 -0.004235268 2.600838e-25)
(0.00393462 -0.004239782 2.757762e-25)
(0.006372855 -0.0007650248 -7.36128e-25)
(0.006813434 -0.0004051453 -4.206512e-25)
(0.006245421 -0.001515775 -7.398532e-25)
(0.006721239 -0.001209294 -9.973894e-22)
(0.006037425 -0.002242921 1.313529e-23)
(0.00654235 -0.001992536 -1.041135e-26)
(0.005751766 -0.00293801 -4.526239e-27)
(0.006279303 -0.002746384 -9.4222e-27)
(0.00537742 -0.003604055 0)
(0.005930531 -0.003467639 0)
(0.004943886 -0.004206182 0)
(0.005494755 -0.004139685 -3.521742e-25)
(0.005005326 -0.004745354 -3.457461e-26)
(0.004454645 -0.004747467 -1.732172e-26)
(0.007209106 -0.0008579051 -4.623808e-24)
(0.00770458 -0.0004544988 -1.153287e-21)
(0.007064144 -0.001699611 1.053238e-23)
(0.007599124 -0.001356479 -8.796724e-25)
(0.006828505 -0.002514748 1.490025e-23)
(0.007396351 -0.0022349 -1.921831e-26)
(0.006505017 -0.003293506 -5.046397e-27)
(0.007098477 -0.00308015 -1.604883e-26)
(0.006081483 -0.004039722 -3.562682e-25)
(0.006703393 -0.003888102 0)
(0.005591136 -0.004715413 5.172469e-23)
(0.006212119 -0.00464133 -9.469966e-22)
(0.005657484 -0.005321817 -5.38316e-26)
(0.005037386 -0.00532154 5.913718e-23)
(0.008147968 -0.0009626728 -5.248226e-24)
(0.008705468 -0.0005101065 -1.00242e-24)
(0.007983264 -0.001906963 1.185224e-23)
(0.008584973 -0.001522332 -1.270846e-21)
(0.007716447 -0.002821448 3.364302e-23)
(0.008355463 -0.002508202 -5.170476e-25)
(0.00734944 -0.003694814 -1.126042e-26)
(0.008018372 -0.003457911 -1.108025e-26)
(0.006872893 -0.004528456 -3.822813e-25)
(0.007569623 -0.004367304 1.18121e-25)
(0.006319175 -0.005290611 -3.968289e-25)
(0.007022185 -0.005199155 -2.018732e-25)
(0.006389596 -0.005971631 2.361695e-26)
(0.005691288 -0.005970031 6.635464e-23)
(0.009202588 -0.001080613 -1.570785e-24)
(0.009830025 -0.0005726157 -1.461673e-21)
(0.009015847 -0.002140422 -1.545886e-24)
(0.009692541 -0.001708724 -1.426323e-21)
(0.008714899 -0.00316738 -5.0539e-25)
(0.009433709 -0.00281505 -1.371135e-21)
(0.00829722 -0.004150735 1.170502e-25)
(0.009056697 -0.003880544 -5.289012e-25)
(0.007773264 -0.005078018 -4.358168e-22)
(0.00856087 -0.004899275 1.350416e-25)
(0.007143233 -0.00593803 -1.544664e-22)
(0.007947381 -0.00583586 -2.891788e-25)
(0.007214427 -0.006704775 4.510577e-25)
(0.0064266 -0.0067017 4.287696e-26)
(0.01038742 -0.001213051 3.838852e-24)
(0.01109363 -0.0006428015 -5.951866e-25)
(0.01017579 -0.002402293 -1.793738e-23)
(0.01093665 -0.00191799 -1.60589e-21)
(0.009837142 -0.003553879 -1.655997e-24)
(0.01064414 -0.00315958 -1.559683e-21)
(0.009373233 -0.004653302 -5.063978e-23)
(0.01021868 -0.004354296 -1.499206e-21)
(0.008789897 -0.005689993 -4.411681e-25)
(0.009662432 -0.005488325 1.742115e-26)
(0.008061615 -0.006666792 -4.640735e-26)
(0.008971529 -0.006555493 -1.231049e-21)
(0.008142538 -0.007531025 1.189169e-21)
(0.007253784 -0.007527034 8.418303e-23)
(0.01171866 -0.001361713 -6.504892e-25)
(0.01251351 -0.0007214679 7.477203e-25)
(0.01147894 -0.002696533 -1.871086e-23)
(0.01233455 -0.00215264 -6.505842e-25)
(0.0110972 -0.003989674 -1.844096e-24)
(0.0120049 -0.003546417 -6.287305e-25)
(0.01057588 -0.005225245 -1.21741e-24)
(0.01152618 -0.004888394 -1.684853e-21)
(0.009919833 -0.006389266 -5.133244e-25)
(0.01090061 -0.006161774 6.642216e-25)
(0.00909736 -0.007487444 -5.151645e-25)
(0.01012141 -0.007361246 -5.242022e-25)
(0.009189737 -0.008457961 -1.452584e-21)
(0.008186516 -0.008457112 -3.726778e-25)
(0.01321427 -0.001528098 7.478555e-25)
(0.01410848 -0.0008093476 2.05748e-21)
(0.01294338 -0.003025979 0)
(0.01390487 -0.002414873 0)
(0.01251416 -0.004477877 1.678351e-26)
(0.01353441 -0.003978989 0)
(0.01192809 -0.00586619 -6.419732e-23)
(0.01299706 -0.005486514 1.908784e-21)
(0.01118813 -0.007173927 6.77868e-25)
(0.01229373 -0.006920719 1.882356e-21)
(0.01026655 -0.008402881 -5.497442e-25)
(0.0114136 -0.0082775 -6.648566e-25)
(0.01037984 -0.009484391 -5.461805e-25)
(0.009240865 -0.009503457 -1.092684e-24)
(0.01489382 -0.001713698 1.676585e-24)
(0.01589906 -0.0009071805 2.289349e-21)
(0.01458857 -0.003393613 0)
(0.01566794 -0.002706869 4.710742e-27)
(0.01410769 -0.005023258 7.431713e-25)
(0.01525308 -0.00446081 8.99534e-25)
(0.01345216 -0.006584503 6.715806e-23)
(0.01465301 -0.006152626 7.64782e-25)
(0.01261687 -0.008063103 7.780088e-25)
(0.01387352 -0.007763727 1.907824e-21)
(0.01161102 -0.009434213 -6.690257e-25)
(0.01291008 -0.009289346 -1.463748e-21)
(0.01175553 -0.01065553 0)
(0.01044164 -0.01068019 5.463618e-25)
(0.01677848 -0.001919937 9.441453e-25)
(0.01790725 -0.001015656 9.388758e-25)
(0.01643541 -0.003802263 -2.271903e-23)
(0.01764557 -0.00303083 -1.025455e-24)
(0.01589803 -0.005629327 9.211802e-25)
(0.01718209 -0.004995944 2.439102e-21)
(0.01516755 -0.007379939 -7.687316e-23)
(0.01651198 -0.006893337 2.149188e-26)
(0.01424558 -0.009032975 -7.1884e-25)
(0.0156409 -0.008700528 -2.311545e-21)
(0.01313808 -0.01057178 -7.670214e-25)
(0.01456788 -0.01039868 -6.025945e-25)
(0.01327552 -0.01197524 8.396317e-26)
(0.0117826 -0.01199788 5.304179e-25)
(0.01889107 -0.002148169 -1.029505e-24)
(0.02015668 -0.001135287 -1.177863e-24)
(0.01850684 -0.004255181 -3.190748e-26)
(0.0198617 -0.003388632 -2.757417e-21)
(0.01790821 -0.006302644 9.993119e-25)
(0.01934617 -0.005588103 2.116494e-24)
(0.01709469 -0.008268445 -8.431795e-25)
(0.01860178 -0.0077152 0)
(0.01606901 -0.01013052 -2.045239e-22)
(0.01763408 -0.009746347 -9.110245e-25)
(0.01483458 -0.01186805 -3.101945e-22)
(0.01644074 -0.01165904 1.452067e-25)
(0.01499639 -0.01344648 1.777925e-25)
(0.0133073 -0.0134876 -1.398098e-26)
(0.02125599 -0.002399078 -2.331028e-24)
(0.02267169 -0.001266308 -3.037071e-21)
(0.02082785 -0.004754578 -3.678506e-26)
(0.02234181 -0.003780818 -2.443465e-24)
(0.0201642 -0.007046228 1.118117e-24)
(0.02177094 -0.006239524 2.985937e-21)
(0.01926287 -0.009251315 -6.766226e-26)
(0.02094844 -0.008621068 0)
(0.01812527 -0.01134608 2.215436e-22)
(0.01987862 -0.0109017 -6.767193e-26)
(0.01675133 -0.01330672 -3.342326e-22)
(0.01855645 -0.01306159 -1.056836e-24)
(0.01695267 -0.01510432 2.633426e-25)
(0.01505866 -0.01514111 8.632552e-25)
(0.02389886 -0.002671969 -2.608091e-24)
(0.02547765 -0.001407488 -2.794013e-24)
(0.02342506 -0.005301694 -3.905531e-26)
(0.02511335 -0.004207321 -3.392412e-21)
(0.02269263 -0.007862622 1.25212e-24)
(0.02448335 -0.006951725 1.251139e-24)
(0.02169968 -0.01033278 0)
(0.02357971 -0.009613394 1.275952e-24)
(0.02044751 -0.01268847 -1.054887e-24)
(0.02240491 -0.01216792 -8.404811e-26)
(0.01892591 -0.01491464 -9.082784e-25)
(0.0209652 -0.01458935 -2.627313e-21)
(0.01925774 -0.01686893 1.073983e-21)
(0.01715408 -0.01698282 1.493637e-21)
(0.02684606 -0.002963832 1.856189e-23)
(0.02859624 -0.00156241 -3.346752e-21)
(0.02632593 -0.005897412 -1.450552e-24)
(0.02820573 -0.004658008 -1.454162e-24)
(0.0255211 -0.008753267 1.274908e-24)
(0.02751069 -0.007722362 -1.590064e-24)
(0.02443159 -0.0115146 2.100239e-22)
(0.0265238 -0.01069529 3.626411e-21)
(0.0230552 -0.01414934 -2.353399e-24)
(0.02523322 -0.01355643 -1.507228e-24)
(0.02138558 -0.01661623 -3.634909e-22)
(0.02363559 -0.01627382 -3.777597e-21)
(0.02170473 -0.01880675 -4.070388e-21)
(0.01941865 -0.01885357 -1.5066e-21)
(0.03012818 -0.003268202 -1.656455e-24)
(0.03207056 -0.001720117 -1.641374e-24)
(0.02956738 -0.006533273 -1.594027e-24)
(0.03165436 -0.00514433 0)
(0.02868266 -0.009717997 8.665696e-23)
(0.03088915 -0.008547716 -4.070161e-21)
(0.02749407 -0.01280589 4.456213e-26)
(0.02981843 -0.01186533 1.465159e-24)
(0.02598596 -0.01576977 -4.080829e-24)
(0.02841698 -0.01507106 -4.045294e-21)
(0.02414095 -0.01857677 -3.879305e-24)
(0.02667569 -0.01814172 -4.224844e-21)
(0.02455985 -0.02105304 1.546893e-25)
(0.02193256 -0.02119025 -3.299927e-24)
(0.03376526 -0.003596403 0)
(0.03590261 -0.001887219 -2.057297e-24)
(0.03315519 -0.007204597 -3.506093e-24)
(0.0354428 -0.005679171 1.986218e-24)
(0.03221084 -0.01075167 -3.492951e-24)
(0.03464842 -0.009396767 -4.490183e-21)
(0.03092712 -0.01419821 -3.187549e-24)
(0.03349656 -0.01310323 0)
(0.02929823 -0.01752585 -4.68357e-24)
(0.0319923 -0.01669436 -4.394656e-21)
(0.02730377 -0.02071285 -1.282229e-25)
(0.03012623 -0.02014903 -1.492674e-24)
(0.02787453 -0.02345278 4.07376e-21)
(0.02489469 -0.02374331 1.389667e-24)
(0.03776411 -0.00396242 3.899472e-23)
(0.04013439 -0.002065503 -4.120814e-21)
(0.03713615 -0.007896481 3.921945e-24)
(0.03965147 -0.00621588 3.925114e-21)
(0.03615647 -0.01181489 1.922353e-24)
(0.03882533 -0.01031601 7.791716e-21)
(0.0347733 -0.01567553 -1.788347e-24)
(0.03761577 -0.01435961 4.217843e-24)
(0.03302472 -0.01939639 -1.787925e-24)
(0.0359899 -0.0184035 -3.659024e-24)
(0.03089409 -0.02298264 1.226836e-24)
(0.03400808 -0.02228605 1.513211e-25)
(0.03159032 -0.02601485 1.049992e-24)
(0.02834141 -0.02638654 7.976427e-22)
(0.04219392 -0.004316911 -4.94989e-26)
(0.04475199 -0.00224209 -2.277055e-24)
(0.04151779 -0.008619017 8.700014e-24)
(0.04426101 -0.006733648 2.248101e-24)
(0.04052557 -0.01289789 1.077312e-23)
(0.0434359 -0.01123305 3.803678e-21)
(0.03908897 -0.01720389 -2.973421e-22)
(0.0422291 -0.01567431 9.885259e-21)
(0.03721096 -0.02137057 -1.720102e-24)
(0.04046584 -0.02016717 -5.962804e-21)
(0.0349487 -0.02541823 -3.042525e-22)
(0.03838738 -0.02453648 4.82565e-25)
(0.03582673 -0.02876998 6.043667e-25)
(0.03221252 -0.02930159 7.657684e-22)
(0.04700481 -0.00467648 -2.649777e-23)
(0.04976211 -0.002418216 -2.535391e-28)
(0.04634038 -0.009329939 2.50744e-24)
(0.04925303 -0.007265091 -8.374554e-28)
(0.04533069 -0.01397948 -1.828601e-22)
(0.0484265 -0.01211953 5.1207e-24)
(0.04383451 -0.01872775 4.666091e-23)
(0.04719527 -0.01704807 6.240247e-24)
(0.04191464 -0.02340927 -2.172311e-24)
(0.04547337 -0.02187388 -3.873296e-24)
(0.03954858 -0.02797565 -5.340569e-22)
(0.04331991 -0.02682106 2.344187e-24)
(0.04066371 -0.03164252 7.800473e-25)
(0.0366696 -0.03241755 -5.998575e-22)
(0.05220604 -0.0050291 2.484154e-23)
(0.05515935 -0.002581704 -3.882666e-27)
(0.05155324 -0.01005064 2.601949e-24)
(0.0546461 -0.007766652 -1.209929e-26)
(0.05052762 -0.01511936 -1.814992e-24)
(0.05388127 -0.01297939 4.371124e-21)
(0.04911894 -0.02021501 3.836876e-22)
(0.05271769 -0.01830959 4.654701e-21)
(0.04723331 -0.02538578 3.475031e-22)
(0.05107211 -0.02362677 2.863694e-24)
(0.04477614 -0.03058248 2.011688e-24)
(0.0489214 -0.02898831 9.543154e-21)
(0.04616038 -0.03454729 0)
(0.04179143 -0.03564185 -1.227352e-25)
(0.05777943 -0.005343385 0)
(0.06090272 -0.002719263 -8.547315e-27)
(0.05716284 -0.01068367 2.986013e-24)
(0.06038639 -0.008190944 2.577241e-26)
(0.0562518 -0.01608359 6.132861e-24)
(0.05969405 -0.01370544 3.076249e-24)
(0.05489674 -0.02161111 2.826271e-22)
(0.05868248 -0.01933604 3.137397e-24)
(0.05315313 -0.02724584 5.242394e-22)
(0.05723056 -0.025176 4.375901e-21)
(0.05074038 -0.03313629 4.010224e-24)
(0.05530823 -0.03109123 3.649981e-24)
(0.05244331 -0.03739157 -9.883652e-25)
(0.04767566 -0.03893495 -2.335688e-24)
(0.06366842 -0.005597525 6.407996e-23)
(0.0669207 -0.002814472 -3.711592e-24)
(0.06310105 -0.01119709 9.921309e-24)
(0.06640855 -0.008491392 5.316494e-26)
(0.06232337 -0.01689464 8.950218e-26)
(0.06583572 -0.01425313 -3.525883e-24)
(0.06118249 -0.02276291 6.241207e-24)
(0.06501005 -0.02019632 0)
(0.05963472 -0.02884934 6.077412e-24)
(0.06378367 -0.02642951 6.870603e-21)
(0.05736585 -0.03544119 -7.496346e-22)
(0.06212032 -0.03312382 3.674665e-25)
(0.05971917 -0.03997725 -5.715282e-24)
(0.05448431 -0.04223017 3.781894e-22)
(0.06978665 -0.005734447 -4.301072e-23)
(0.07310826 -0.002842374 -8.355726e-22)
(0.06929707 -0.01150444 -3.582952e-24)
(0.07262883 -0.008602291 -3.92578e-24)
(0.06871614 -0.0174653 -3.616457e-24)
(0.07224072 -0.01453417 -2.264105e-21)
(0.06787727 -0.02372426 3.813569e-24)
(0.07173292 -0.02075256 -2.611599e-25)
(0.06660281 -0.03042877 7.897614e-22)
(0.07099187 -0.02740384 3.118558e-24)
(0.06495202 -0.03754703 -6.949382e-21)
(0.06981987 -0.03466444 3.987674e-21)
(0.06814281 -0.04236202 -6.944423e-24)
(0.06246181 -0.04541569 1.08607e-21)
(0.07600906 -0.005696111 3.911514e-23)
(0.07929469 -0.002797895 -4.027305e-24)
(0.07566251 -0.01155344 -7.900279e-24)
(0.07893287 -0.008462984 5.345791e-22)
(0.07537841 -0.01768435 -4.211103e-24)
(0.07880012 -0.01446807 3.250334e-25)
(0.0749973 -0.02423731 -9.958577e-22)
(0.07872672 -0.0208873 -1.305167e-25)
(0.07432415 -0.03135365 -8.668465e-22)
(0.07856107 -0.02789344 -5.290625e-24)
(0.07327521 -0.03909052 -1.169731e-21)
(0.07802578 -0.03564835 2.012432e-24)
(0.07711298 -0.04445579 -2.183618e-24)
(0.07142124 -0.04804252 -4.518387e-21)
(0.08217822 -0.005480768 4.20094e-24)
(0.08531612 -0.002655764 4.665509e-24)
(0.0820945 -0.01127072 -3.408763e-22)
(0.08515656 -0.008112515 -8.933052e-21)
(0.0822126 -0.01748536 5.477847e-22)
(0.08541167 -0.01394672 -1.835166e-21)
(0.08242386 -0.0242858 -4.457547e-24)
(0.08590922 -0.02048054 9.354744e-24)
(0.08253615 -0.03187701 -1.852735e-21)
(0.0865446 -0.02776061 -1.391315e-21)
(0.08222471 -0.04047572 -4.624227e-25)
(0.08707873 -0.03599768 3.790039e-24)
(0.08721977 -0.04553864 5.520606e-23)
(0.0816513 -0.05007605 -1.412842e-22)
(0.08808789 -0.005127934 1.365928e-23)
(0.09094151 -0.002401914 -6.878843e-21)
(0.08836215 -0.01061239 -2.087278e-21)
(0.09109737 -0.007472138 8.957218e-24)
(0.08910765 -0.01670957 1.358732e-23)
(0.09186126 -0.01300613 4.330955e-24)
(0.090072 -0.02362399 4.2396e-24)
(0.09311889 -0.01931682 -5.598568e-21)
(0.09119103 -0.03146567 -2.24458e-21)
(0.09467748 -0.02669773 5.072277e-24)
(0.09212656 -0.04048764 5.794711e-23)
(0.09647531 -0.03527166 -2.659723e-21)
(0.09780897 -0.0456587 -2.188482e-19)
(0.09216526 -0.05077754 1.050433e-19)
(0.09362324 -0.004527889 -3.255435e-22)
(0.09596413 -0.00204512 -2.421975e-25)
(0.09425976 -0.009598848 -2.1894e-26)
(0.09655854 -0.006469167 1.138651e-26)
(0.09570026 -0.01527842 1.093563e-25)
(0.09785129 -0.01153895 6.33351e-26)
(0.0977443 -0.02202133 1.028782e-23)
(0.1000295 -0.01736452 1.90932e-20)
(0.0999311 -0.02993828 -5.020139e-23)
(0.1028063 -0.02448567 -1.952152e-20)
(0.101672 -0.03926096 5.382463e-20)
(0.1056696 -0.03381556 2.232636e-19)
(0.1069418 -0.04610861 -6.9558e-19)
(0.1015832 -0.05017605 -4.390986e-19)
(0.09844652 -0.003734628 -5.11818e-24)
(0.1001294 -0.001581194 1.501478e-20)
(0.09968018 -0.008135803 7.115736e-22)
(0.1012848 -0.005163732 3.288679e-26)
(0.1017083 -0.01317615 -1.075973e-23)
(0.1031756 -0.00940104 1.48818e-25)
(0.1047454 -0.01921189 -1.706787e-20)
(0.1062073 -0.01459667 1.304947e-22)
(0.1078513 -0.02690605 -1.477123e-20)
(0.1100426 -0.0217175 4.039207e-19)
(0.1091796 -0.0366607 6.124799e-19)
(0.1127964 -0.03257659 4.278287e-19)
(0.11251 -0.04804601 3.320479e-19)
(0.1078129 -0.04799045 -1.414289e-19)
(0.1023358 -0.002736992 -5.333458e-24)
(0.1031754 -0.001029092 -5.334184e-24)
(0.1041745 -0.006172215 8.616335e-26)
(0.1049466 -0.003510497 1.772026e-26)
(0.1070008 -0.010187 4.507485e-21)
(0.1074145 -0.006641678 1.575523e-23)
(0.1103475 -0.01555168 9.59e-20)
(0.1114427 -0.01141631 -8.535565e-19)
(0.1131916 -0.02298781 -8.424643e-19)
(0.1147146 -0.01984607 -2.399098e-19)
(0.1134672 -0.03316083 1.336599e-18)
(0.1163886 -0.03279048 4.600282e-19)
(0.1154203 -0.05117103 6.761597e-18)
(0.1102671 -0.04587957 2.24168e-18)
(0.1049779 -0.001554242 1.768516e-26)
(0.1048191 -0.0003903643 0)
(0.1073959 -0.003717816 1.688172e-21)
(0.1071627 -0.001483226 -6.618101e-23)
(0.11071 -0.006500544 4.142552e-20)
(0.1101392 -0.003575938 -8.869499e-20)
(0.1138186 -0.0115545 3.517958e-19)
(0.1142103 -0.008883633 -7.543764e-20)
(0.1147914 -0.01927279 1.232631e-18)
(0.1161126 -0.01960828 -9.873582e-19)
(0.1141446 -0.02960082 -3.547055e-18)
(0.1156734 -0.03554608 -3.616543e-19)
(0.1152296 -0.05570498 8.816186e-18)
(0.1092795 -0.04212406 1.167876e-18)
(0.1060552 -0.0001591106 -6.582221e-23)
(0.1048136 0.0003855042 -5.427309e-24)
(0.1087839 -0.0007800109 -1.443184e-19)
(0.107581 0.0007189175 3.533338e-19)
(0.1118482 -0.002707567 9.386808e-19)
(0.1105666 -0.001105419 -4.499141e-19)
(0.1138522 -0.008062928 -1.164607e-18)
(0.1134027 -0.007884113 -2.704031e-18)
(0.1132833 -0.01638898 1.258118e-18)
(0.1143087 -0.02101353 -2.496832e-18)
(0.1102089 -0.02738582 2.271382e-18)
(0.1128633 -0.03967697 -1.502404e-19)
(0.1102011 -0.06300827 -1.195537e-18)
(0.1068915 -0.04143009 3.64913e-17)
(0.1053149 0.001537311 5.495586e-22)
(0.1029255 0.0012883 2.540399e-20)
(0.1079939 0.00216401 8.646843e-20)
(0.1059749 0.00263471 4.11953e-19)
(0.109829 -2.890584e-05 4.670558e-20)
(0.1082662 -0.0001643219 4.389458e-19)
(0.1103291 -0.005631827 5.508997e-19)
(0.1090602 -0.009226845 3.238513e-18)
(0.1080589 -0.0143487 9.60367e-19)
(0.1094272 -0.024306 -2.182019e-18)
(0.1038059 -0.02542034 -8.046959e-18)
(0.1066614 -0.04524284 2.339368e-18)
(0.1030589 -0.07058963 -1.611143e-17)
(0.09760561 -0.03822603 1.036562e-18)
(0.1022941 0.003386116 -4.501067e-20)
(0.09887882 0.002078438 2.113793e-19)
(0.1044077 0.004625303 1.571944e-21)
(0.1016101 0.003687207 -7.032189e-19)
(0.1049182 0.001939844 1.377139e-19)
(0.1028264 -0.0008292757 -7.808392e-19)
(0.1034631 -0.004286876 3.452348e-18)
(0.1025947 -0.0123005 6.238385e-19)
(0.1003314 -0.01403483 4.561889e-18)
(0.1006412 -0.03027956 -4.595662e-18)
(0.09552801 -0.02494837 -1.774871e-17)
(0.09656119 -0.05315409 2.963315e-18)
(0.09643331 -0.0793094 -4.362002e-18)
(0.08724706 -0.03861869 3.280515e-17)
(0.09663854 0.004910819 -7.188395e-20)
(0.09242362 0.002379727 7.710871e-20)
(0.09774714 0.006251644 2.586739e-19)
(0.09419455 0.003455725 -9.223475e-20)
(0.09707054 0.003232349 8.981373e-19)
(0.09445883 -0.002968626 3.92774e-19)
(0.09427015 -0.003671454 5.301833e-19)
(0.09351328 -0.01682908 5.530229e-18)
(0.08911359 -0.01401445 -8.325127e-18)
(0.09114722 -0.03707423 3.854315e-18)
(0.08256376 -0.02636014 2.063387e-17)
(0.08611022 -0.06218596 -2.522333e-18)
(0.07867886 -0.09272694 8.653453e-18)
(0.07711387 -0.03940078 -6.942756e-17)
(0.08843112 0.005597277 -8.441026e-20)
(0.08373744 0.002070851 6.038261e-19)
(0.08836985 0.006679729 -1.029099e-18)
(0.08436435 0.001839237 7.448788e-19)
(0.08661913 0.003201175 -1.623053e-18)
(0.08378237 -0.006407522 -3.39599e-18)
(0.0828932 -0.004722323 -1.389053e-18)
(0.0826128 -0.02242512 2.052795e-18)
(0.0770504 -0.01580808 1.59822e-18)
(0.07963218 -0.04500203 -2.626404e-18)
(0.06936263 -0.02862769 4.158865e-18)
(0.07377363 -0.07261273 1.779465e-17)
(0.06512945 -0.1054898 1.262213e-17)
(0.06074204 -0.04237868 3.720091e-17)
(0.07792662 0.005508536 -4.425478e-19)
(0.07248204 0.001138506 1.022781e-19)
(0.07705522 0.005940962 -5.121264e-19)
(0.07222085 -0.0009161661 -5.357486e-19)
(0.07444357 0.001749913 1.907364e-18)
(0.07263839 -0.01056858 6.023749e-18)
(0.07015917 -0.007244831 3.807752e-18)
(0.07056169 -0.02858478 -3.833823e-18)
(0.06401975 -0.01895496 1.390673e-17)
(0.06636649 -0.05343804 -7.599487e-18)
(0.05593066 -0.03259433 -1.274775e-17)
(0.06020694 -0.08386025 9.01015e-19)
(0.05241931 -0.1191913 -1.113397e-17)
(0.04552645 -0.04731617 2.499876e-17)
(0.0651727 0.004809871 1.231481e-19)
(0.05903953 -5.447831e-05 6.913506e-20)
(0.06376424 0.004777993 -7.428161e-19)
(0.05861479 -0.003960974 1.184325e-18)
(0.06139473 -0.0001858414 5.412072e-18)
(0.05793872 -0.01570161 -2.243128e-18)
(0.05737823 -0.009902458 5.281379e-18)
(0.05537363 -0.03550538 -3.797599e-18)
(0.05195179 -0.02284355 6.498121e-17)
(0.05021099 -0.0627033 1.67856e-18)
(0.04473717 -0.03776688 1.224686e-17)
(0.04412489 -0.09646856 1.212674e-18)
(0.04757981 -0.132065 -1.07777e-17)
(0.03366474 -0.0543413 1.729364e-17)
(0.05067823 0.004004166 -8.278919e-20)
(0.04380232 -0.001190039 4.112827e-19)
(0.04908285 0.003435338 -3.135542e-19)
(0.04390689 -0.006763485 -1.005754e-18)
(0.04626139 -0.002040815 -8.894046e-19)
(0.042853 -0.01989041 3.303827e-18)
(0.04211119 -0.01238867 7.92417e-18)
(0.04045055 -0.04135451 -1.648474e-18)
(0.03617044 -0.02685748 -3.343999e-17)
(0.03670617 -0.070702 3.403588e-18)
(0.02876479 -0.04391161 -2.679339e-17)
(0.03142779 -0.1073395 -1.002007e-17)
(0.02860053 -0.1490299 4.030421e-20)
(0.02105169 -0.06280866 -5.826653e-17)
(0.03512151 0.002793719 1.021451e-19)
(0.0280408 -0.002096292 2.345047e-19)
(0.0338091 0.002084713 1.675748e-19)
(0.02813994 -0.00898348 -1.636489e-18)
(0.03157227 -0.004079018 1.041944e-19)
(0.02750196 -0.02318096 1.120673e-18)
(0.0280123 -0.01541375 -4.743577e-19)