/*--------------------------------*- C++ -*----------------------------------*\
| =========                 |                                                 |
| \\      /  F ield         | OpenFOAM: The Open Source CFD Toolbox           |
|  \\    /   O peration     | Version:  2206                                  |
|   \\  /    A nd           | Website:  www.openfoam.com                      |
|    \\/     M anipulation  |                                                 |
\*---------------------------------------------------------------------------*/
FoamFile
{
    version     2.0;
    format      ascii;
    arch        "LSB;label=32;scalar=64";
    class       volVectorField;
    location    "2.4";
    object      ddtCorrDdt0(U.b);
}
// * * * * * * * * * * * * * * * * * * * * * * * * * * * * * * * * * * * * * //

dimensions      [0 1 -2 0 0 0 0];

internalField   nonuniform List<vector> 
13078
(
(0.0001841119 -8.230422e-05 6.333464e-27)
(0.000161611 -0.000416739 -2.707445e-28)
(0.0001454522 -0.0005256754 -3.11149e-26)
(0.0001379016 -0.0007334043 0)
(0.0001309292 -0.0009185761 -2.802881e-26)
(0.0001216402 -0.00109238 -3.35982e-26)
(0.0001091916 -0.001257576 -3.883577e-26)
(0.0003574081 -0.0001042338 0)
(0.000343348 -0.0002892516 -4.269619e-28)
(0.0003279518 -0.0005130124 0)
(0.0003231301 -0.0007322164 0)
(0.000313407 -0.0009255614 -3.950284e-28)
(0.0002917212 -0.001106879 -1.880135e-28)
(0.0002653531 -0.001275405 -3.528872e-28)
(0.0006004062 -9.318913e-05 4.290423e-26)
(0.000572452 -0.0002977839 -4.054223e-26)
(0.0005427305 -0.0005167819 1.51962e-26)
(0.000528159 -0.0007387575 4.431997e-26)
(0.0005023682 -0.0009447731 2.915379e-26)
(0.0004672553 -0.001135066 0)
(0.0004260484 -0.001309595 -2.300183e-31)
(0.0008359235 -0.0001050527 5.67092e-26)
(0.0008096662 -0.0003224119 -1.092829e-25)
(0.0007774345 -0.0005456077 -1.027834e-25)
(0.0007372731 -0.000764549 -4.797407e-26)
(0.0006984985 -0.0009821021 1.536051e-27)
(0.0006502093 -0.001179337 0)
(0.0005931781 -0.001361198 6.794881e-28)
(0.001067316 -0.0001154394 -1.071494e-28)
(0.00104631 -0.0003490653 -6.99109e-26)
(0.001009602 -0.0005834392 -1.327884e-25)
(0.0009608218 -0.0008122968 -1.290399e-25)
(0.0009034192 -0.001027675 2.498876e-26)
(0.0008419227 -0.001238775 -3.076751e-30)
(0.000768643 -0.001430842 4.153996e-26)
(0.001316523 -0.000125006 0)
(0.001294668 -0.0003771795 7.053927e-28)
(0.001255131 -0.0006260702 -1.164144e-27)
(0.001199632 -0.0008683159 -7.729032e-26)
(0.001129119 -0.001100124 4.186349e-27)
(0.001044436 -0.001313448 -3.904821e-26)
(0.0009551523 -0.001519019 -9.311501e-26)
(0.001587328 -0.0001371047 0)
(0.001564493 -0.0004088586 -9.956457e-26)
(0.001517977 -0.0006763358 -1.159113e-25)
(0.001455217 -0.000934886 -2.715527e-26)
(0.001369142 -0.001184666 -8.296089e-26)
(0.00126962 -0.001415354 5.301702e-27)
(0.001153623 -0.001625691 0)
(0.001882002 -0.0001478107 2.376271e-25)
(0.001857129 -0.000444156 -1.169414e-25)
(0.001805197 -0.0007348468 -1.134162e-25)
(0.001729015 -0.001017146 0)
(0.001628951 -0.001286476 -2.052837e-25)
(0.001511869 -0.001535222 5.700036e-27)
(0.001375792 -0.001764014 6.58075e-27)
(0.002204236 -0.0001620406 2.574221e-29)
(0.002173724 -0.000485993 2.70524e-25)
(0.002115087 -0.0008037104 1.343979e-25)
(0.002027704 -0.001112255 4.068536e-27)
(0.001911944 -0.001405377 -4.718211e-25)
(0.001775134 -0.001677449 6.176101e-27)
(0.001615548 -0.001926628 0)
(0.002557438 -0.0001786738 -3.164146e-25)
(0.002523452 -0.0005351519 3.1111e-25)
(0.002455447 -0.0008834487 1.511756e-25)
(0.002355737 -0.001222051 -2.88432e-25)
(0.002221239 -0.001544529 -1.55126e-28)
(0.002062443 -0.001843106 0)
(0.001877841 -0.002115547 0)
(0.002947027 -0.0001974108 0)
(0.002909381 -0.0005913824 0)
(0.0028319 -0.0009752789 3.454047e-25)
(0.002716015 -0.001349126 -3.296253e-25)
(0.002561334 -0.00170564 1.767514e-28)
(0.002378698 -0.002034214 0)
(0.002166137 -0.00233379 0)
(0.003379546 -0.0002184368 0)
(0.00333627 -0.0006550291 -4.039022e-25)
(0.003247929 -0.001081815 3.927542e-25)
(0.003114489 -0.001496077 3.690366e-25)
(0.002937653 -0.001889931 -3.627394e-25)
(0.002728432 -0.002253535 0)
(0.002484828 -0.002584777 3.241991e-25)
(0.003860274 -0.0002433568 0)
(0.003810127 -0.000728972 -4.600357e-25)
(0.00370903 -0.001203187 -4.250598e-27)
(0.003557437 -0.001663391 4.240908e-25)
(0.003355858 -0.002100745 -4.027036e-25)
(0.0031166 -0.002504552 3.761118e-25)
(0.002838559 -0.002872149 2.786209e-28)
(0.004395942 -0.0002717851 -5.253331e-25)
(0.00433855 -0.0008132992 0)
(0.004223177 -0.001341531 -4.694787e-27)
(0.004049708 -0.00185372 -6.510182e-27)
(0.003822891 -0.002340343 -9.093611e-25)
(0.003548648 -0.002790862 4.245223e-25)
(0.003232393 -0.003199926 -3.898605e-25)
(0.004994891 -0.0003038406 -5.923259e-25)
(0.004929082 -0.0009089896 0)
(0.004797983 -0.001499665 -1.038531e-26)
(0.004597951 -0.002073977 6.370469e-25)
(0.004350994 -0.00260751 -3.728234e-25)
(0.004031393 -0.00311551 0)
(0.003671975 -0.003572491 4.381499e-25)
(0.005665115 -0.0003399567 0)
(0.005589665 -0.001016769 -6.551157e-25)
(0.005441395 -0.001676079 0)
(0.005221689 -0.002311587 6.26448e-25)
(0.004932898 -0.002918361 2.020389e-26)
(0.004570588 -0.003484774 2.425866e-26)
(0.004163456 -0.003995243 5.202876e-25)
(0.006416091 -0.0003808543 0)
(0.006329598 -0.001139084 -1.472741e-24)
(0.006161208 -0.001877668 -6.441932e-27)
(0.005913391 -0.002588664 -8.911963e-27)
(0.00558505 -0.003268734 0)
(0.005174616 -0.003902705 0)
(0.004713667 -0.004473924 0)
(0.007258588 -0.0004270773 -8.411754e-25)
(0.007159601 -0.001277257 -8.291467e-25)
(0.006968644 -0.002105281 -1.437925e-26)
(0.006688077 -0.002902086 -9.932221e-27)
(0.006316042 -0.003664036 0)
(0.005852501 -0.004374829 -7.042066e-25)
(0.005330373 -0.005015201 -6.913303e-26)
(0.008204528 -0.0004791907 -9.444082e-25)
(0.008091381 -0.001433099 -9.301799e-25)
(0.007875099 -0.002362057 -2.405541e-26)
(0.007557466 -0.003255874 -2.216294e-26)
(0.00713471 -0.004109387 0)
(0.006616975 -0.00490581 -7.561949e-25)
(0.006022434 -0.005626604 -3.85372e-26)
(0.009267164 -0.0005378668 -1.060413e-24)
(0.00913798 -0.001608556 -2.081521e-24)
(0.008893658 -0.002651489 -1.009844e-24)
(0.008535878 -0.003657205 0)
(0.008053584 -0.004623015 2.366188e-25)
(0.007492181 -0.005493511 3.59885e-25)
(0.006801401 -0.006314799 8.580085e-26)
(0.01046113 -0.0006037263 -1.190581e-24)
(0.01031368 -0.001805427 -2.330839e-24)
(0.01003783 -0.002975352 -2.254325e-24)
(0.009636365 -0.00410076 -1.057138e-24)
(0.009109103 -0.005169385 3.486863e-26)
(0.008458516 -0.006173136 -9.358986e-25)
(0.007676975 -0.007092127 8.160828e-25)
(0.01180275 -0.0006776785 0)
(0.01163454 -0.00202655 -1.301459e-24)
(0.01132327 -0.003340009 -1.25777e-24)
(0.01087104 -0.004604249 -2.430927e-24)
(0.01027993 -0.005803625 0)
(0.009544731 -0.006933453 -1.048458e-24)
(0.008664455 -0.007966906 1.163207e-27)
(0.01331002 -0.0007604252 1.495147e-24)
(0.01311847 -0.002274116 0)
(0.01276821 -0.003748442 0)
(0.01226 -0.005168407 3.35819e-26)
(0.01159531 -0.006516004 1.328056e-24)
(0.01076397 -0.007784308 0)
(0.009784443 -0.008945788 -1.082997e-24)
(0.01500262 -0.0008527267 3.351883e-24)
(0.01478497 -0.002550337 0)
(0.01439207 -0.004204489 0)
(0.01382318 -0.005799813 1.487003e-24)
(0.01308046 -0.007320785 2.831108e-24)
(0.01214076 -0.008767355 -1.33245e-24)
(0.01108028 -0.0100274 0)
(0.01690181 -0.0009552929 1.878143e-24)
(0.01665508 -0.00285734 9.419187e-27)
(0.01621564 -0.004711359 1.798582e-24)
(0.0155803 -0.006500019 4.299763e-26)
(0.01475462 -0.008201343 5.578357e-26)
(0.01373409 -0.009798375 -1.497762e-24)
(0.01251342 -0.01127438 0)
(0.01903038 -0.001068796 0)
(0.01875169 -0.003197394 -2.05982e-24)
(0.01826188 -0.005273893 1.997717e-24)
(0.01755439 -0.007280312 0)
(0.0166348 -0.009193646 -1.687225e-24)
(0.01550133 -0.01099249 2.907859e-25)
(0.01413262 -0.01266814 1.678692e-25)
(0.02141232 -0.001193594 -2.355181e-24)
(0.02109958 -0.003571976 -2.306854e-24)
(0.02055599 -0.005894742 2.2352e-24)
(0.01977226 -0.00814283 0)
(0.01875328 -0.01029211 -1.353955e-25)
(0.01749515 -0.01231883 -2.578885e-28)
(0.01596807 -0.01421604 1.877143e-25)
(0.02407166 -0.001329868 -2.636093e-24)
(0.02372586 -0.003980721 -2.580047e-24)
(0.02312425 -0.006575701 2.503084e-24)
(0.02226084 -0.00909101 0)
(0.02113829 -0.0115033 0)
(0.01975513 -0.01379642 -2.112969e-24)
(0.01806799 -0.01598688 3.393516e-25)
(0.02703352 -0.001475054 -2.95182e-24)
(0.02665811 -0.004423598 -2.901354e-24)
(0.02599395 -0.007318019 0)
(0.02504807 -0.01012638 2.550952e-24)
(0.02381488 -0.01282369 -1.680245e-25)
(0.0222952 -0.01537371 -4.54157e-24)
(0.02047056 -0.01772808 6.944905e-25)
(0.03031587 -0.001639355 -3.292159e-24)
(0.02993849 -0.004881557 0)
(0.02919837 -0.00811571 -3.180118e-24)
(0.02816719 -0.01125334 2.931424e-24)
(0.02682069 -0.01427844 -2.845265e-24)
(0.02515088 -0.01716299 -5.317902e-24)
(0.02312677 -0.01987177 -2.433247e-24)
(0.03398158 -0.001790076 0)
(0.03354428 -0.005392734 0)
(0.0327687 -0.008966916 -6.990235e-24)
(0.03165397 -0.012465 0)
(0.03020006 -0.01585142 -6.378087e-24)
(0.02839597 -0.01910793 -2.986992e-24)
(0.02620838 -0.02222101 2.741116e-24)
(0.03801394 -0.001972035 -4.112664e-24)
(0.0375104 -0.005953796 3.979175e-24)
(0.0367583 -0.009816464 3.864007e-24)
(0.0355612 -0.0137277 0)
(0.03398721 -0.01752362 -3.573925e-24)
(0.0320619 -0.02117642 0)
(0.02972569 -0.02466992 2.455408e-24)
(0.0424398 -0.002146633 -4.563288e-24)
(0.04194729 -0.006463385 4.479135e-24)
(0.04107907 -0.01080046 1.301289e-23)
(0.0399659 -0.01498291 8.502845e-24)
(0.03822972 -0.01926822 -3.744159e-24)
(0.03619367 -0.02337933 3.024774e-25)
(0.03370321 -0.02734305 -3.535701e-25)
(0.04725459 -0.002324473 7.267968e-27)
(0.04675472 -0.006991119 2.25589e-26)
(0.0459241 -0.01164662 5.004861e-24)
(0.04471219 -0.01633845 9.067674e-24)
(0.04297958 -0.02104683 -5.017237e-24)
(0.04085425 -0.02567449 6.624609e-25)
(0.03824245 -0.0301768 1.56104e-24)
(0.05246053 -0.002498376 -7.76875e-27)
(0.05195125 -0.007525106 -2.421081e-26)
(0.05115403 -0.01257625 5.236345e-24)
(0.04988141 -0.01774517 3.390467e-24)
(0.04834794 -0.02269616 -2.702755e-24)
(0.04614574 -0.02794655 4.030087e-24)
(0.04341241 -0.03308529 0)
(0.05803384 -0.002652045 0)
(0.05752474 -0.007994874 0)
(0.05680034 -0.01336816 5.977252e-24)
(0.05569997 -0.01884639 6.289335e-24)
(0.05406324 -0.02453153 8.440929e-24)
(0.05222814 -0.03002596 8.162889e-24)
(0.04930606 -0.03598412 0)
(0.06392042 -0.002775027 -1.708682e-26)
(0.06341619 -0.008374363 5.151861e-26)
(0.06278538 -0.01402818 1.788236e-25)
(0.0618601 -0.01980931 0)
(0.06049898 -0.02578682 1.253237e-23)
(0.05871258 -0.03210246 -8.116967e-25)
(0.05608007 -0.03876336 -1.977064e-24)
(0.07003246 -0.002844972 -7.402741e-24)
(0.06954057 -0.008597521 5.480963e-26)
(0.06905294 -0.01446538 -7.226286e-24)
(0.06837798 -0.02056718 0)
(0.06737264 -0.0270484 7.644863e-24)
(0.06579227 -0.03413159 1.561669e-24)
(0.06408637 -0.0411887 -9.590038e-24)
(0.07621955 -0.002836774 -8.045181e-24)
(0.07579778 -0.008600719 -7.906332e-24)
(0.0755267 -0.01459516 -7.894222e-24)
(0.07522869 -0.02092707 -5.219612e-25)
(0.07476334 -0.02774631 -1.390825e-24)
(0.0738783 -0.03516409 4.932222e-24)
(0.07261998 -0.04345763 -4.334871e-24)
(0.08228636 -0.002766379 0)
(0.0820673 -0.008326221 8.463529e-24)
(0.08212042 -0.01433739 8.551857e-24)
(0.08230296 -0.02084131 2.604597e-25)
(0.08254174 -0.02802651 -9.18423e-24)
(0.08252546 -0.03610398 -8.983244e-25)
(0.08189864 -0.04543883 0)
(0.0881224 -0.002560226 9.291337e-24)
(0.08805191 -0.007917736 1.81095e-23)
(0.08867143 -0.01355702 8.648857e-24)
(0.08953473 -0.0201181 1.846624e-23)
(0.0906042 -0.02749033 -9.966439e-24)
(0.09177285 -0.03588002 8.457148e-24)
(0.09247557 -0.04562059 1.079835e-22)
(0.0934525 -0.002265769 9.82126e-24)
(0.09379377 -0.007056091 -4.321142e-26)
(0.09473563 -0.01248962 0)
(0.09666323 -0.0185071 2.203454e-25)
(0.09879597 -0.02590013 2.015523e-23)
(0.1010526 -0.03467332 -1.203863e-22)
(0.1022593 -0.04576104 2.859881e-22)
(0.09801788 -0.001858884 -1.029213e-23)
(0.0988749 -0.005916475 6.578504e-26)
(0.1004877 -0.01064288 1.250944e-25)
(0.1029652 -0.01627359 -2.203199e-23)
(0.1065046 -0.02306413 -1.046481e-22)
(0.1091032 -0.03305198 1.01483e-22)
(0.1091306 -0.04664943 1.176931e-22)
(0.1015867 -0.001354539 -1.065121e-23)
(0.1030856 -0.004457547 0)
(0.1052623 -0.008208885 1.724258e-25)
(0.1087411 -0.01302372 2.779293e-22)
(0.1119744 -0.02059414 -2.634872e-23)
(0.1139421 -0.03233591 1.890846e-22)
(0.1125389 -0.04974397 9.892544e-23)
(0.1039207 -0.000769479 0)
(0.1060446 -0.002619052 3.557815e-26)
(0.1087386 -0.005136163 3.136328e-23)
(0.1126583 -0.009927974 2.52343e-22)
(0.1148866 -0.01933615 1.822858e-22)
(0.114284 -0.03396445 -1.127012e-22)
(0.111576 -0.05335006 -5.27741e-22)
(0.104792 -7.489354e-05 0)
(0.1073373 -0.0004332217 -1.326837e-22)
(0.1102173 -0.002077332 1.779501e-22)
(0.1133398 -0.008014038 3.738176e-22)
(0.1141109 -0.02013329 1.496365e-22)
(0.1119234 -0.03749975 -6.892974e-23)
(0.10688 -0.0601637 -6.001552e-22)
(0.1038806 0.0007818503 -1.084047e-23)
(0.1067508 0.001777415 -2.219477e-22)
(0.1092147 -0.0002836802 1.838335e-22)
(0.1103261 -0.008157876 3.211781e-22)
(0.1094615 -0.02238199 3.026012e-22)
(0.1057482 -0.04251121 -9.516235e-23)
(0.1001059 -0.06687647 -9.679684e-23)
(0.1008969 0.001720849 -9.174451e-23)
(0.1036867 0.003387542 1.196965e-22)
(0.1050818 -0.0001969949 3.838922e-22)
(0.1045682 -0.01050857 -1.796591e-22)
(0.1016779 -0.02738499 1.302392e-22)
(0.09607479 -0.04923515 -4.987849e-23)
(0.08964076 -0.0760746 -1.551917e-22)
(0.09561932 0.002348129 -8.442539e-23)
(0.09764615 0.003853368 2.762941e-22)
(0.09777458 -0.001658752 1.944991e-22)
(0.09610776 -0.01440305 -1.237162e-22)
(0.09175146 -0.03364184 -2.337802e-22)
(0.08489918 -0.05772029 5.923068e-23)
(0.07688252 -0.08734824 -5.337088e-22)
(0.08800507 0.002322617 -1.293849e-22)
(0.08883587 0.002918128 -6.117975e-23)
(0.08779003 -0.004528394 -9.925741e-23)
(0.08514458 -0.01968361 -8.959772e-23)
(0.07990719 -0.04128583 -1.534139e-22)
(0.07268779 -0.067692 7.714453e-23)
(0.0631845 -0.09932616 6.07028e-26)
(0.07802444 0.001714885 -8.242365e-23)
(0.07771548 0.0005727181 -1.081e-22)
(0.07590856 -0.008649202 6.313493e-24)
(0.07253524 -0.02577778 -4.018042e-23)
(0.06691317 -0.04971835 1.08046e-23)
(0.05939023 -0.07878406 8.159349e-23)
(0.04932955 -0.1130247 -6.532804e-23)
(0.06560654 0.0005126351 5.01675e-23)
(0.06468767 -0.002462251 -4.589655e-24)
(0.06256295 -0.01340546 -7.853946e-23)
(0.05849817 -0.03248861 -1.681203e-23)
(0.05279844 -0.05862449 1.706056e-22)
(0.04508123 -0.0909428 5.286406e-22)
(0.03502427 -0.1279308 3.506225e-22)
(0.05121088 -0.0006639005 -1.185885e-23)
(0.05011351 -0.00553199 -1.174642e-23)
(0.04790277 -0.01812702 -1.144722e-22)
(0.0441395 -0.03878735 -3.750332e-23)
(0.03879573 -0.06685352 -1.990486e-23)
(0.03106957 -0.1021199 -1.39824e-22)
(0.02179743 -0.1433883 -2.131588e-22)
(0.03558539 -0.001744644 -4.657483e-23)
(0.03463797 -0.008106254 4.619908e-23)
(0.03288779 -0.02183562 -3.139574e-23)
(0.02999981 -0.04415962 2.473293e-23)
(0.02543657 -0.0748263 2.517117e-24)
(0.01913214 -0.1129378 1.740423e-23)
(0.01097109 -0.1564452 -1.907632e-22)
(0.01943504 -0.002485906 -1.731254e-23)
(0.01874661 -0.009971779 4.793467e-23)
(0.01748831 -0.02471867 3.133103e-25)
(0.01541123 -0.04873633 1.307066e-23)
(0.01221984 -0.08110052 -5.926064e-23)
(0.008322619 -0.1208308 -1.414893e-22)
(0.003128677 -0.1664594 -6.588187e-24)
(0.002453403 -0.002976317 -5.471595e-24)
(0.002136851 -0.01129408 3.222377e-24)
(0.001502706 -0.02677361 -1.526167e-23)
(0.0004920123 -0.05161296 9.860082e-24)
(-0.0007894649 -0.08468375 -4.345652e-23)
(-0.002209235 -0.1253011 -1.894522e-22)
(-0.003822108 -0.1720713 8.655412e-23)
(-0.01473508 -0.003009956 8.265072e-25)
(-0.01463164 -0.01153308 -3.113891e-24)
(-0.01447477 -0.02725588 -1.762094e-24)
(-0.01401022 -0.05221408 -4.258555e-24)
(-0.01320393 -0.0852519 1.907571e-23)
(-0.0121429 -0.1257215 -6.487485e-23)
(-0.01033679 -0.1723753 -7.033263e-23)
(-0.03136544 -0.002647744 -8.884503e-24)
(-0.03084336 -0.01067204 4.30679e-24)
(-0.03000756 -0.02589832 1.749271e-23)
(-0.02827294 -0.05004897 -6.365373e-24)
(-0.02555448 -0.08234432 2.215343e-23)
(-0.02201498 -0.1217825 7.970155e-23)
(-0.01690236 -0.166529 1.100804e-22)
(-0.04740652 -0.001816679 -2.154122e-23)
(-0.04668387 -0.008932993 2.520896e-23)
(-0.04510714 -0.02351553 4.661925e-23)
(-0.04254096 -0.04631141 -3.621653e-23)
(-0.03849003 -0.07693188 -6.813155e-24)
(-0.03304643 -0.114166 7.082814e-24)
(-0.02560847 -0.1569154 -7.496443e-23)
(-0.0623828 -0.0009128197 -4.010441e-23)
(-0.06170998 -0.006562028 3.516131e-23)
(-0.05960803 -0.02015493 4.869853e-23)
(-0.05619933 -0.04165566 -4.635484e-23)
(-0.05138175 -0.07042656 -1.465732e-22)
(-0.04466811 -0.1054325 -2.149618e-22)
(-0.03672726 -0.145852 -1.375572e-22)
(-0.07570483 0.0001562282 -3.881232e-23)
(-0.07520787 -0.003820848 1.833551e-23)
(-0.07332222 -0.01607561 -1.790446e-22)
(-0.06946026 -0.03637726 3.650333e-23)
(-0.06419736 -0.06346817 -2.477598e-22)
(-0.05710886 -0.09601375 -6.054412e-22)
(-0.04860163 -0.1331689 -1.496772e-22)
(-0.08675268 0.001223229 -1.121094e-22)
(-0.08688158 -0.001076397 -3.314809e-23)
(-0.08527793 -0.0115859 -2.213897e-22)
(-0.0820136 -0.03017603 4.248454e-23)
(-0.07661967 -0.05558051 1.097192e-22)
(-0.06979106 -0.08598687 8.3912e-24)
(-0.06157605 -0.1213863 1.957386e-22)
(-0.0951846 0.001733729 -1.766825e-22)
(-0.09636447 0.001041032 -1.004963e-22)
(-0.09560442 -0.007869836 8.182944e-23)
(-0.09325007 -0.02464093 3.121832e-23)
(-0.08815184 -0.04800974 7.054207e-23)
(-0.08142515 -0.0768667 -9.229776e-23)
(-0.07314555 -0.1105896 -2.819121e-22)
(-0.1011778 0.001724007 -2.756691e-23)
(-0.1034105 0.001887862 -1.255435e-22)
(-0.1038027 -0.005207009 -1.958786e-22)
(-0.1024319 -0.01966657 -2.909085e-24)
(-0.09818678 -0.04084192 -1.06836e-22)
(-0.09153076 -0.06753255 -8.201472e-23)
(-0.08334351 -0.0989418 3.658885e-22)
(-0.1047904 0.001093027 3.097504e-23)
(-0.1076025 0.001428233 -1.941991e-22)
(-0.1092256 -0.00375925 -3.320088e-22)
(-0.1089583 -0.01593456 -1.492274e-24)
(-0.1062196 -0.03489194 -7.548882e-23)
(-0.1002572 -0.05869688 -1.594707e-23)
(-0.09290367 -0.08712623 -3.158326e-23)
(-0.1061196 0.0001731757 -1.115473e-23)
(-0.1088864 -0.0001338833 -2.288653e-23)
(-0.1115106 -0.003730458 -3.294215e-22)
(-0.1127297 -0.01352305 9.816758e-23)
(-0.1118711 -0.02952215 1.485368e-22)
(-0.1074497 -0.05102955 2.264822e-23)
(-0.1006197 -0.07627897 -2.824788e-22)
(-0.1054196 -0.0006387999 0)
(-0.1077537 -0.00223981 8.998337e-23)
(-0.1107186 -0.005293955 -3.222949e-22)
(-0.1137288 -0.01274549 -9.249588e-23)
(-0.1142424 -0.0264549 1.116789e-22)
(-0.1113853 -0.04491475 1.190581e-23)
(-0.1054802 -0.06785395 1.713794e-22)
(-0.1030933 -0.001289458 0)
(-0.1049258 -0.004183636 -8.305238e-26)
(-0.107574 -0.007914685 -9.462209e-23)
(-0.1111086 -0.01399985 -1.779014e-22)
(-0.1129051 -0.02462121 1.957411e-22)
(-0.1117675 -0.04034522 3.435911e-22)
(-0.1076628 -0.05948752 2.581938e-22)
(-0.09952905 -0.00180413 -1.044089e-23)
(-0.1006883 -0.005781366 0)
(-0.102716 -0.01044617 0)
(-0.1056492 -0.01622818 9.329903e-24)
(-0.1081601 -0.02467076 3.503677e-23)
(-0.1090966 -0.03692907 1.171166e-22)
(-0.1064155 -0.0540307 5.642762e-22)
(-0.09493116 -0.002224638 -9.951422e-24)
(-0.0955087 -0.00696727 -8.280679e-26)
(-0.09685543 -0.01230964 -1.532399e-25)
(-0.09879464 -0.01851515 -1.509424e-24)
(-0.101293 -0.02571699 -1.621755e-22)
(-0.1027665 -0.03581216 -2.556561e-22)
(-0.1019519 -0.04938875 2.20651e-22)
(-0.08955569 -0.002522994 0)
(-0.08971265 -0.00779051 9.354072e-24)
(-0.09041612 -0.01358629 0)
(-0.09168771 -0.0198565 -4.805026e-25)
(-0.09296389 -0.02729003 -6.750224e-25)
(-0.09414281 -0.03594375 -9.856496e-23)
(-0.09443241 -0.04644208 4.896868e-23)
(-0.08366713 -0.002713562 0)
(-0.08350694 -0.008325261 -8.64692e-24)
(-0.08385523 -0.01415443 8.669585e-24)
(-0.08423531 -0.02071159 0)
(-0.08460063 -0.02795359 -1.340055e-24)
(-0.08497707 -0.03585266 5.056397e-24)
(-0.08464372 -0.04499823 5.179063e-23)
(-0.07748848 -0.00282519 0)
(-0.07723437 -0.008480822 -2.406353e-23)
(-0.07711833 -0.01447713 -1.042183e-26)
(-0.07694527 -0.02088969 -1.674093e-23)
(-0.07669922 -0.02768728 -1.35879e-24)
(-0.07600422 -0.03529548 7.665283e-24)
(-0.07467566 -0.04381878 -7.631511e-24)
(-0.07128772 -0.002818722 7.467633e-24)
(-0.07091377 -0.008511687 -7.478674e-24)
(-0.07053602 -0.01435961 2.031253e-27)
(-0.07003259 -0.02047841 -1.404759e-23)
(-0.06918989 -0.02695431 0)
(-0.06788282 -0.03381641 0)
(-0.06614315 -0.04125965 -1.057437e-23)
(-0.065172 -0.00275796 6.814588e-24)
(-0.06473725 -0.008326598 -6.793638e-24)
(-0.06419088 -0.01399362 6.635555e-24)
(-0.06343852 -0.01977222 6.51319e-24)
(-0.06220565 -0.02590476 0)
(-0.06041349 -0.03241195 0)
(-0.0584764 -0.0387437 -7.289966e-24)
(-0.05926407 -0.002646705 -6.222078e-24)
(-0.05879522 -0.007991397 -6.318635e-24)
(-0.05816925 -0.01333878 -1.651012e-25)
(-0.05718016 -0.01885147 5.637049e-24)
(-0.05570652 -0.02454188 1.706499e-24)
(-0.05388841 -0.03020096 -8.537366e-24)
(-0.05130022 -0.03624522 4.175548e-24)
(-0.05366357 -0.002496416 -5.656576e-24)
(-0.05319858 -0.007526054 -4.799229e-26)
(-0.05247663 -0.01258457 1.586036e-25)
(-0.05137282 -0.01770835 2.25221e-25)
(-0.04980814 -0.02295398 0)
(-0.04784193 -0.02814658 -5.387749e-24)
(-0.04517528 -0.03350771 4.528359e-24)
(-0.04841495 -0.002340806 0)
(-0.04795866 -0.007025696 -8.825739e-26)
(-0.04717949 -0.01175283 -1.497439e-25)
(-0.04595501 -0.01656358 1.083102e-23)
(-0.04449949 -0.02116149 1.975885e-24)
(-0.04234808 -0.0260036 7.898409e-24)
(-0.03981718 -0.03068565 3.211189e-24)
(-0.04355771 -0.002161816 -1.338993e-26)
(-0.04309646 -0.00650174 -4.162609e-26)
(-0.04230723 -0.01082898 0)
(-0.04115801 -0.01517664 -1.160385e-26)
(-0.03952987 -0.01952729 4.04206e-24)
(-0.03752413 -0.0237837 3.808159e-24)
(-0.03509802 -0.02790559 -7.136372e-25)
(-0.0390858 -0.001989835 4.127487e-24)
(-0.03862949 -0.005989152 -4.149454e-24)
(-0.03781638 -0.0100049 7.24998e-24)
(-0.03677265 -0.01386953 -8.340511e-24)
(-0.03515373 -0.01782006 3.374618e-24)
(-0.03325704 -0.02159863 0)
(-0.03095099 -0.0252312 6.466062e-25)
(-0.03498919 -0.001822871 3.720026e-24)
(-0.03452293 -0.005502663 -3.597238e-24)
(-0.03382309 -0.009069289 3.490806e-24)
(-0.03271116 -0.01267598 0)
(-0.03125181 -0.01617037 -3.222511e-24)
(-0.02946985 -0.01952587 0)
(-0.02731391 -0.02272849 2.784797e-24)
(-0.03126625 -0.001651434 0)
(-0.03086179 -0.004974284 0)
(-0.03014432 -0.008268637 -6.30871e-24)
(-0.02911389 -0.01148965 0)
(-0.02777157 -0.01460374 -5.74707e-24)
(-0.02610829 -0.0175937 -2.688834e-24)
(-0.0240947 -0.02044753 2.464837e-24)
(-0.02788806 -0.001510191 -2.970447e-24)
(-0.0275397 -0.004496347 0)
(-0.02685723 -0.007473452 -2.771569e-24)
(-0.0259071 -0.01035944 2.774549e-24)
(-0.02466768 -0.01313909 -2.561922e-24)
(-0.02313227 -0.0157864 -4.784374e-24)
(-0.02127287 -0.01826921 -2.187026e-24)
(-0.02486722 -0.001357352 -2.652123e-24)
(-0.02452129 -0.004070237 -2.588241e-24)
(-0.02391023 -0.006732155 0)
(-0.02304073 -0.009313258 2.535829e-24)
(-0.02190814 -0.01179032 1.526491e-25)
(-0.02051353 -0.01412985 -4.44674e-24)
(-0.01884008 -0.01628735 -6.314253e-25)
(-0.02214409 -0.001222745 -2.37374e-24)
(-0.0218258 -0.003659842 -2.322646e-24)
(-0.02127317 -0.006044756 2.252581e-24)
(-0.02048085 -0.008355221 0)
(-0.01945162 -0.01056971 0)
(-0.01818429 -0.01267326 -1.898323e-24)
(-0.01663942 -0.01468085 3.158379e-24)
(-0.01970102 -0.001096699 -2.118808e-24)
(-0.01941325 -0.003281944 -2.074781e-24)
(-0.01891455 -0.005415577 2.009666e-24)
(-0.01819623 -0.007479733 0)
(-0.01726301 -0.009452376 1.227717e-25)
(-0.01611144 -0.01131176 2.315821e-28)
(-0.01471455 -0.01305147 -1.700755e-25)
(-0.01751447 -0.000981291 0)
(-0.01725793 -0.002935891 -1.850914e-24)
(-0.01680848 -0.004842451 1.794481e-24)
(-0.01616018 -0.006683993 0)
(-0.01531834 -0.008440023 -1.732899e-24)
(-0.01428138 -0.01009114 -2.634053e-25)
(-0.01303004 -0.01162972 -1.520331e-25)
(-0.01555695 -0.0008764652 1.686125e-24)
(-0.01532752 -0.002620957 -8.527448e-27)
(-0.01492695 -0.004322277 1.585486e-24)
(-0.01434628 -0.005964091 -3.892797e-26)
(-0.01359121 -0.007526404 -4.803918e-26)
(-0.01265775 -0.008993785 -1.341371e-24)
(-0.01154131 -0.01035175 0)
(-0.01381998 -0.0007827543 3.00733e-24)
(-0.01361957 -0.002340518 0)
(-0.01325819 -0.003858061 0)
(-0.01273577 -0.005322334 1.401608e-24)
(-0.01205481 -0.006719226 2.622245e-24)
(-0.01119397 -0.008048666 -1.191572e-24)
(-0.01022257 -0.009207283 0)
(-0.01226638 -0.0006982466 1.339852e-24)
(-0.01208988 -0.00208801 -6.84057e-27)
(-0.01176771 -0.003441388 -1.133272e-26)
(-0.01130097 -0.004745219 -3.197768e-26)
(-0.01069096 -0.005983231 1.108791e-24)
(-0.009928595 -0.007149028 0)
(-0.009031049 -0.00821748 -9.653746e-25)
(-0.0108831 -0.0006227118 -1.018104e-27)
(-0.01072816 -0.00186218 -1.179765e-24)
(-0.01044169 -0.003069049 -1.144934e-24)
(-0.01002603 -0.004230762 -2.172167e-24)
(-0.009483109 -0.005333019 0)
(-0.008808357 -0.006371848 -9.342539e-25)
(-0.008001004 -0.007322527 1.052679e-27)
(-0.009650382 -0.0005551888 -1.062254e-24)
(-0.009514391 -0.001660268 -2.087665e-24)
(-0.00926018 -0.002736047 -2.030519e-24)
(-0.008890686 -0.003770942 -9.924201e-25)
(-0.00840603 -0.00475373 -3.16164e-26)
(-0.007808859 -0.005677085 -8.320396e-25)
(-0.007092112 -0.00652269 8.103862e-25)
(-0.008552334 -0.0004949924 -9.459604e-25)
(-0.008433075 -0.001480316 -1.855923e-24)
(-0.008207747 -0.002440034 -8.996759e-25)
(-0.007878283 -0.003365558 0)
(-0.007434817 -0.004254506 -2.149711e-25)
(-0.006919479 -0.005055741 -3.267794e-25)
(-0.006285988 -0.005811897 -7.783813e-26)
(-0.007574356 -0.000441317 -8.420562e-25)
(-0.007469776 -0.001319826 -8.23128e-25)
(-0.007270143 -0.00217534 2.185042e-26)
(-0.006977502 -0.002998565 2.012877e-26)
(-0.006588719 -0.003784782 0)
(-0.006113404 -0.004518481 -6.688218e-25)
(-0.005568346 -0.005182577 3.498694e-26)
(-0.006703152 -0.0003936227 -7.481032e-25)
(-0.006611492 -0.001177236 -7.317559e-25)
(-0.006435046 -0.001940484 1.30722e-26)
(-0.006176411 -0.002675057 9.028744e-27)
(-0.005834273 -0.003377599 0)
(-0.00540877 -0.004032994 -5.669106e-25)
(-0.004930302 -0.004623462 6.282151e-26)
(-0.005926606 -0.0003513108 5.904607e-28)
(-0.005846264 -0.001050824 -1.300809e-24)
(-0.005690444 -0.001732363 5.862727e-27)
(-0.005461881 -0.002388565 8.110226e-27)
(-0.005159977 -0.003016287 0)
(-0.004783421 -0.00360142 0)
(-0.004361334 -0.004128558 0)
(-0.005233814 -0.0003138869 0)
(-0.005163351 -0.0009390081 -5.772946e-25)
(-0.005025889 -0.001548217 0)
(-0.004823174 -0.002135521 5.218086e-25)
(-0.004557789 -0.002696266 -1.841264e-26)
(-0.004225707 -0.003219609 -2.210123e-26)
(-0.003853367 -0.003691109 4.035796e-25)
(-0.004615033 -0.0002809249 -5.202995e-25)
(-0.004552916 -0.0008407391 0)
(-0.004431086 -0.00138742 9.483487e-27)
(-0.004246517 -0.00191894 3.864536e-25)
(-0.004019906 -0.002412639 -5.75592e-25)
(-0.003727381 -0.002882546 0)
(-0.003399311 -0.003305086 3.796328e-25)
(-0.004061398 -0.0002519243 -4.591793e-25)
(-0.004006208 -0.0007539762 0)
(-0.003898823 -0.001243666 4.297152e-27)
(-0.003738938 -0.001718364 5.956717e-27)
(-0.003531049 -0.002169233 -7.883471e-25)
(-0.003280605 -0.002586548 3.668847e-25)
(-0.002992614 -0.002965405 -3.356237e-25)
(-0.003563791 -0.0002264616 0)
(-0.003515488 -0.0006778241 -3.942514e-25)
(-0.003421756 -0.001118137 3.901518e-27)
(-0.00328241 -0.001545268 3.660063e-25)
(-0.003097879 -0.001951058 -3.466038e-25)
(-0.002879903 -0.002325704 3.226082e-25)
(-0.002627478 -0.00266674 2.544605e-28)
(-0.00311532 -0.0002036919 0)
(-0.003074465 -0.0006106918 -3.473566e-25)
(-0.002992447 -0.001008152 3.370595e-25)
(-0.002870796 -0.001393159 3.252819e-25)
(-0.002709251 -0.001759219 -2.975324e-25)
(-0.002519171 -0.002097445 1.485264e-26)
(-0.00229878 -0.00240552 2.58571e-25)
(-0.00271125 -0.0001844555 0)
(-0.002676894 -0.0005521944 0)
(-0.002605543 -0.0009114666 2.935638e-25)
(-0.00249991 -0.001260426 -2.792304e-25)
(-0.002358814 -0.001591991 1.621203e-28)
(-0.002193641 -0.001898505 0)
(-0.002002122 -0.002177996 0)
(-0.002346839 -0.0001678727 -2.667092e-25)
(-0.002316214 -0.0005019826 2.618234e-25)
(-0.002254787 -0.0008282812 1.240113e-25)
(-0.002163354 -0.001144846 -2.453076e-25)
(-0.002042023 -0.001446417 -1.427715e-28)
(-0.001898357 -0.001726299 1.244914e-26)
(-0.001733013 -0.001980989 4.199755e-30)
(-0.002015267 -0.0001529461 2.304023e-29)
(-0.001987986 -0.0004580731 2.241958e-25)
(-0.001934773 -0.0007565986 1.058996e-25)
(-0.001855849 -0.001046719 -3.78874e-27)
(-0.001752549 -0.001321668 -3.957334e-25)
(-0.001629627 -0.001577373 -5.744944e-27)
(-0.001487458 -0.001811818 0)
(-0.001711612 -0.0001402202 1.934976e-25)
(-0.001687942 -0.0004204578 -9.479765e-26)
(-0.001641934 -0.0006952696 -9.174324e-26)
(-0.001574939 -0.0009625113 0)
(-0.00148611 -0.0012164 -1.645254e-25)
(-0.00138289 -0.001451467 -5.335845e-27)
(-0.001262175 -0.001667379 -6.157025e-27)
(-0.001431021 -0.0001294606 0)
(-0.0014116 -0.0003891862 -7.868754e-26)
(-0.001370451 -0.0006458605 -5.742478e-26)
(-0.001316503 -0.0008912539 2.578008e-26)
(-0.001240909 -0.001127475 -7.215143e-26)
(-0.001154192 -0.001346124 -4.998367e-27)
(-0.001052451 -0.001545485 0)
(-0.001171076 -0.0001216687 0)
(-0.001154032 -0.0003637707 -6.740836e-28)
(-0.001121294 -0.0006021449 1.112464e-27)
(-0.001073298 -0.0008341871 -5.811143e-26)
(-0.001012833 -0.001054416 -3.890328e-27)
(-0.0009404293 -0.001257824 3.724214e-26)
(-0.0008642006 -0.001453632 8.515592e-26)
(-0.0009286435 -0.0001137938 1.057585e-28)
(-0.0009129518 -0.0003430663 -4.81741e-26)
(-0.000885454 -0.000568589 -9.282733e-26)
(-0.0008467378 -0.0007869023 -8.622701e-26)
(-0.000797785 -0.0009934797 7.479546e-26)
(-0.0007469713 -0.001195541 3.576914e-26)
(-0.0006860378 -0.001379344 -1.184651e-27)
(-0.0006992473 -0.0001079382 3.690485e-26)
(-0.0006851484 -0.0003254394 -7.131252e-26)
(-0.0006614752 -0.0005418939 -6.797623e-26)
(-0.0006305731 -0.0007491072 -3.291392e-26)
(-0.0006007293 -0.0009555791 9.899218e-28)
(-0.0005625566 -0.001146994 0)
(-0.0005170889 -0.001322632 4.272769e-28)
(-0.0004793687 -0.0001029205 2.371056e-26)
(-0.0004647272 -0.0003118402 -2.237767e-26)