/*--------------------------------*- C++ -*----------------------------------*\
| =========                 |                                                 |
| \\      /  F ield         | OpenFOAM: The Open Source CFD Toolbox           |
|  \\    /   O peration     | Version:  2206                                  |
|   \\  /    A nd           | Website:  www.openfoam.com                      |
|    \\/     M anipulation  |                                                 |
\*---------------------------------------------------------------------------*/
FoamFile
{
    version     2.0;
    format      ascii;
    arch        "LSB;label=32;scalar=64";
    class       surfaceVectorField;
    location    "2.4";
    object      ddtCorrDdt0(Ufa);
}
// * * * * * * * * * * * * * * * * * * * * * * * * * * * * * * * * * * * * * //

dimensions      [0 1 -2 0 0 0 0];

internalField   nonuniform List<vector> 
26037
(
(6.897189e-08 -8.919693e-06 -6.732275e-23)
(2.081941e-06 -1.68197e-06 1.777106e-28)
(1.208771e-07 -7.692652e-06 1.589537e-24)
(-8.193229e-07 -6.718434e-06 3.403492e-26)
(3.686592e-07 -5.961014e-06 -2.335869e-29)
(-4.594506e-07 -6.023293e-06 -2.341174e-29)
(2.78741e-07 -4.715736e-06 -5.090641e-30)
(-1.119299e-07 -4.793239e-06 0)
(2.280849e-07 -4.294077e-06 6.708519e-27)
(7.521202e-08 -4.312411e-06 -5.154753e-30)
(1.641669e-07 -4.215567e-06 -1.225709e-29)
(1.422158e-07 -4.186326e-06 -5.212075e-29)
(1.319746e-07 -4.202519e-06 -6.595904e-30)
(7.987571e-08 -4.263664e-06 2.264275e-26)
(7.189236e-07 -2.752906e-06 -3.476114e-31)
(1.649241e-06 -9.330829e-07 1.724799e-29)
(-1.524258e-06 -5.175931e-06 -3.509524e-31)
(-1.450517e-06 -4.093958e-06 -1.268281e-29)
(-9.498181e-07 -4.915187e-06 0)
(-1.184091e-06 -4.459037e-06 3.869874e-30)
(-3.164171e-07 -4.400251e-06 -6.47416e-32)
(-5.22548e-07 -4.166603e-06 7.940065e-30)
(-1.049284e-08 -4.205941e-06 -9.518393e-32)
(-1.310606e-07 -4.069672e-06 -2.271893e-28)
(1.10515e-07 -4.176862e-06 -8.696633e-32)
(8.86938e-08 -4.065443e-06 -3.04628e-32)
(1.744178e-07 -4.141037e-06 -1.716334e-28)
(1.200675e-07 -4.250643e-06 -7.348847e-30)
(-9.665759e-07 -2.418593e-06 4.850643e-30)
(-6.027505e-07 -1.283323e-06 -8.31065e-25)
(-1.20553e-06 -3.445292e-06 -8.657005e-30)
(-1.038349e-06 -2.49779e-06 3.726933e-25)
(-7.711338e-07 -3.731812e-06 -6.41113e-26)
(-7.880117e-07 -3.112732e-06 -1.389415e-29)
(-3.3676e-07 -3.842162e-06 -2.206242e-26)
(-4.08393e-07 -3.473853e-06 -1.29592e-31)
(-3.050545e-08 -3.931393e-06 5.012876e-30)
(-7.589129e-08 -3.692079e-06 3.439615e-28)
(1.537435e-07 -4.033318e-06 -3.877106e-35)
(1.714993e-07 -3.853537e-06 0)
(2.905253e-07 -4.018134e-06 1.96083e-28)
(2.093195e-07 -4.174575e-06 7.606112e-30)
(-7.313983e-07 -1.3625e-06 -1.133843e-29)
(-2.906358e-07 -6.85624e-07 8.910614e-30)
(-6.440395e-07 -2.174382e-06 -3.82582e-29)
(-3.168452e-07 -1.513996e-06 1.551911e-26)
(-4.260165e-07 -2.856678e-06 -8.09384e-28)
(-2.459923e-07 -2.306204e-06 -3.134854e-26)
(-1.457225e-07 -3.326395e-06 -7.944348e-30)
(-7.189723e-08 -2.92988e-06 -2.936854e-26)
(1.271423e-07 -3.617449e-06 2.57718e-31)
(1.722539e-07 -3.334912e-06 4.326839e-30)
(3.093739e-07 -3.842129e-06 1.110625e-31)
(3.845454e-07 -3.623058e-06 -5.134806e-34)
(4.8766e-07 -3.873804e-06 7.132442e-30)
(3.646944e-07 -4.058712e-06 -7.675568e-30)
(1.219756e-07 -8.274962e-07 -1.542646e-27)
(4.101376e-07 -3.599772e-07 -1.54611e-32)
(8.060622e-08 -1.642344e-06 4.392368e-28)
(4.727728e-07 -1.117531e-06 -1.214755e-29)
(1.12566e-07 -2.38226e-06 -4.573822e-29)
(4.045577e-07 -1.911131e-06 -2.358068e-29)
(2.511877e-07 -2.940645e-06 3.014925e-27)
(4.375958e-07 -2.568028e-06 -1.443691e-26)
(4.327212e-07 -3.343118e-06 2.568011e-26)
(5.647517e-07 -3.058871e-06 1.713508e-26)
(5.646014e-07 -3.658862e-06 -2.323794e-26)
(6.99454e-07 -3.428884e-06 -6.689188e-30)
(7.557866e-07 -3.746074e-06 -7.411509e-28)
(5.855221e-07 -3.943222e-06 7.021367e-30)
(7.630442e-07 -6.394415e-07 1.2647e-31)
(8.419793e-07 -2.779355e-07 0)
(7.999123e-07 -1.382568e-06 -1.162989e-27)
(1.152315e-06 -9.606373e-07 -1.744188e-29)
(7.324237e-07 -2.100852e-06 4.008003e-28)
(1.061225e-06 -1.706721e-06 -2.074318e-29)
(7.54271e-07 -2.69007e-06 -3.081996e-27)
(9.968534e-07 -2.360359e-06 -1.837695e-29)
(8.359167e-07 -3.147617e-06 -5.994474e-30)
(1.029728e-06 -2.884582e-06 -3.552431e-26)
(8.93874e-07 -3.520003e-06 2.760494e-26)
(1.084497e-06 -3.300355e-06 -5.871245e-30)
(1.079361e-06 -3.661003e-06 -1.587443e-29)
(8.62096e-07 -3.85507e-06 2.69682e-26)
(1.23617e-06 -5.891479e-07 -1.75592e-29)
(1.146522e-06 -2.671116e-07 3.361532e-29)
(1.418459e-06 -1.281732e-06 -3.810111e-29)
(1.714886e-06 -9.249119e-07 -1.713073e-26)
(1.329764e-06 -1.967915e-06 1.451436e-26)
(1.653616e-06 -1.63425e-06 -3.749107e-26)
(1.277375e-06 -2.560438e-06 -1.924417e-29)
(1.545104e-06 -2.276263e-06 -4.864251e-30)
(1.28243e-06 -3.041519e-06 -2.979814e-27)
(1.5091e-06 -2.808726e-06 -4.996043e-29)
(1.274586e-06 -3.445543e-06 9.240014e-31)
(1.507597e-06 -3.246392e-06 1.917988e-30)
(1.448946e-06 -3.63384e-06 1.127031e-30)
(1.184936e-06 -3.811084e-06 -3.666363e-31)
(1.62796e-06 -5.930682e-07 1.298763e-29)
(1.410674e-06 -2.804838e-07 8.30663e-26)
(1.951884e-06 -1.276766e-06 -4.060817e-29)
(2.199375e-06 -9.517789e-07 2.7206e-29)
(1.872379e-06 -1.940812e-06 -2.01718e-29)
(2.184422e-06 -1.651117e-06 3.736378e-30)
(1.78041e-06 -2.531885e-06 -3.587181e-29)
(2.057807e-06 -2.287666e-06 7.325253e-31)
(1.73806e-06 -3.018352e-06 -3.460852e-29)
(1.984834e-06 -2.818789e-06 -8.981328e-26)
(1.686123e-06 -3.439711e-06 -3.527588e-27)
(1.947783e-06 -3.263493e-06 2.075315e-30)
(1.854364e-06 -3.667792e-06 1.134824e-30)
(1.549323e-06 -3.823407e-06 -8.726168e-30)
(1.987096e-06 -6.278107e-07 4.78274e-29)
(1.668121e-06 -3.053251e-07 -1.046189e-25)
(2.437519e-06 -1.327724e-06 7.154568e-29)
(2.659124e-06 -1.014848e-06 1.290244e-25)
(2.376133e-06 -1.993764e-06 -2.031678e-27)
(2.685688e-06 -1.72913e-06 6.572093e-26)
(2.266446e-06 -2.582636e-06 -8.191152e-29)
(2.553724e-06 -2.370882e-06 -5.047398e-29)
(2.198492e-06 -3.069112e-06 -3.533375e-27)
(2.461583e-06 -2.901628e-06 -1.060713e-25)
(2.119769e-06 -3.496986e-06 1.08028e-30)
(2.405734e-06 -3.347607e-06 1.079947e-30)
(2.28967e-06 -3.759231e-06 0)
(1.94923e-06 -3.8933e-06 1.543802e-29)
(2.345361e-06 -6.801453e-07 1.017509e-29)
(1.937171e-06 -3.366427e-07 -4.49015e-29)
(2.913372e-06 -1.41775e-06 8.182049e-29)
(3.124202e-06 -1.10197e-06 5.510273e-29)
(2.870532e-06 -2.102178e-06 -2.364894e-29)
(3.188348e-06 -1.850485e-06 8.777624e-29)
(2.753394e-06 -2.698541e-06 -5.08504e-29)
(3.054269e-06 -2.510855e-06 -1.286673e-25)
(2.67362e-06 -3.185791e-06 -2.746774e-32)
(2.953792e-06 -3.047388e-06 1.253503e-25)
(2.580028e-06 -3.615685e-06 0)
(2.890954e-06 -3.494385e-06 0)
(2.75985e-06 -3.909522e-06 0)
(2.383833e-06 -4.018285e-06 2.079916e-29)
(2.722154e-06 -7.451067e-07 0)
(2.228512e-06 -3.731531e-07 0)
(3.406123e-06 -1.536816e-06 6.103279e-29)
(3.617514e-06 -1.208171e-06 -7.180644e-29)
(3.380151e-06 -2.255021e-06 3.799172e-30)
(3.715792e-06 -2.007018e-06 1.579485e-25)
(3.259955e-06 -2.869328e-06 -5.81708e-29)
(3.579441e-06 -2.699291e-06 7.150553e-30)
(3.176737e-06 -3.36212e-06 3.13545e-32)
(3.476737e-06 -3.249502e-06 -1.462632e-25)
(3.075875e-06 -3.79462e-06 0)
(3.413852e-06 -3.701111e-06 0)
(3.272369e-06 -4.120641e-06 5.533436e-29)
(2.857835e-06 -4.201656e-06 -2.03606e-29)
(3.13072e-06 -8.21601e-07 -7.177657e-29)
(2.549328e-06 -4.150855e-07 0)
(3.934684e-06 -1.680907e-06 -2.334798e-30)
(4.153859e-06 -1.332756e-06 -1.969712e-25)
(3.924187e-06 -2.446884e-06 1.354193e-28)
(4.284433e-06 -2.195884e-06 6.880992e-29)
(3.802718e-06 -3.089741e-06 4.223329e-27)
(4.146279e-06 -2.932608e-06 1.744221e-25)
(3.720345e-06 -3.595182e-06 -6.347712e-29)
(4.04426e-06 -3.505778e-06 -1.341572e-28)
(3.616207e-06 -4.034177e-06 5.531531e-29)
(3.984416e-06 -3.967751e-06 6.506442e-29)
(3.834493e-06 -4.395395e-06 1.346985e-25)
(3.377866e-06 -4.447743e-06 -1.127691e-26)
(3.580247e-06 -9.100864e-07 -8.18919e-29)
(2.904544e-06 -4.630705e-07 -7.503263e-29)
(4.51254e-06 -1.850313e-06 2.416536e-27)
(4.744903e-06 -1.476721e-06 -8.19053e-29)
(4.516789e-06 -2.676797e-06 7.410898e-29)
(4.907108e-06 -2.417236e-06 -1.612191e-30)
(4.395134e-06 -3.359528e-06 3.984237e-30)
(4.765659e-06 -3.210906e-06 7.459779e-29)
(4.31573e-06 -3.885797e-06 -5.501955e-30)
(4.669435e-06 -3.818633e-06 -2.005125e-25)
(4.209389e-06 -4.336783e-06 6.511391e-29)
(4.612449e-06 -4.297435e-06 1.706245e-25)
(4.453345e-06 -4.73799e-06 -1.534202e-25)
(3.950224e-06 -4.761194e-06 4.859029e-32)
(4.077996e-06 -1.011741e-06 -7.50471e-29)
(3.299387e-06 -5.177314e-07 -2.051009e-25)
(5.149447e-06 -2.046399e-06 -8.459734e-31)
(5.39914e-06 -1.641666e-06 0)
(5.167292e-06 -2.946375e-06 3.414654e-27)
(5.590755e-06 -2.672883e-06 -2.720012e-30)
(5.048703e-06 -3.681357e-06 -1.624739e-28)
(5.442607e-06 -3.534721e-06 1.128801e-28)
(4.974915e-06 -4.239009e-06 -8.629141e-29)
(5.365811e-06 -4.192788e-06 -2.704395e-25)
(4.864005e-06 -4.707331e-06 6.887655e-30)
(5.308064e-06 -4.695962e-06 7.360132e-29)
(5.136042e-06 -5.15401e-06 8.443154e-30)
(4.581334e-06 -5.147706e-06 -1.192584e-29)
(4.630537e-06 -1.127719e-06 -8.469146e-29)
(3.739404e-06 -5.798803e-07 -8.465244e-29)
(5.851836e-06 -2.271211e-06 -1.871904e-30)
(6.125558e-06 -1.829589e-06 -1.170806e-28)
(5.878403e-06 -3.257418e-06 5.91739e-27)
(6.34334e-06 -2.964434e-06 -1.872382e-30)
(5.772834e-06 -4.055308e-06 -7.784065e-26)
(6.183526e-06 -3.90367e-06 2.033622e-25)
(5.711824e-06 -4.663191e-06 -6.54845e-29)
(6.137082e-06 -4.632464e-06 -6.21745e-29)
(5.58906e-06 -5.152696e-06 7.516749e-29)
(6.075339e-06 -5.167125e-06 4.317818e-30)
(5.887922e-06 -5.648892e-06 1.977785e-25)
(5.277674e-06 -5.6139e-06 1.418817e-28)
(5.245706e-06 -1.259568e-06 -1.170241e-28)
(4.230852e-06 -6.506373e-07 0)
(6.629476e-06 -2.526691e-06 -1.171043e-28)
(6.9351e-06 -2.043904e-06 -3.234201e-25)
(6.657988e-06 -3.610339e-06 1.110211e-28)
(7.178235e-06 -3.297794e-06 -1.161622e-30)
(6.556752e-06 -4.480064e-06 -1.065873e-26)
(6.99419e-06 -4.32496e-06 1.095336e-28)
(6.511208e-06 -5.152417e-06 7.999883e-30)
(6.970174e-06 -5.134049e-06 3.67525e-30)
(6.383975e-06 -5.674875e-06 -1.609388e-26)
(6.914019e-06 -5.711841e-06 4.315942e-30)
(6.712797e-06 -6.227004e-06 8.947751e-29)
(6.043455e-06 -6.165539e-06 9.492244e-29)
(5.933095e-06 -1.410243e-06 -2.633452e-28)
(4.780282e-06 -7.311357e-07 -1.205425e-28)
(7.49852e-06 -2.81984e-06 -2.64687e-28)
(7.838731e-06 -2.288122e-06 -3.656956e-25)
(7.528417e-06 -4.017242e-06 4.924154e-27)
(8.109792e-06 -3.679519e-06 -3.756391e-30)
(7.420995e-06 -4.974523e-06 -1.629791e-30)
(7.897946e-06 -4.812775e-06 -3.394512e-30)
(7.384741e-06 -5.711899e-06 0)
(7.882301e-06 -5.705003e-06 0)
(7.253735e-06 -6.277076e-06 0)
(7.83179e-06 -6.3344e-06 -1.235849e-28)
(7.614963e-06 -6.891761e-06 -1.21689e-29)
(6.882835e-06 -6.807338e-06 -6.020058e-30)
(6.700404e-06 -1.581366e-06 8.684096e-27)
(5.393954e-06 -8.21974e-07 -3.373879e-25)
(8.466574e-06 -3.153203e-06 4.456148e-27)
(8.844818e-06 -2.563625e-06 -3.151857e-28)
(8.495471e-06 -4.480993e-06 5.576885e-27)
(9.141929e-06 -4.110194e-06 -6.939548e-30)
(8.374616e-06 -5.537903e-06 -1.818918e-30)
(8.893018e-06 -5.363702e-06 -5.788429e-30)
(8.342876e-06 -6.347949e-06 -1.250216e-28)
(8.877775e-06 -6.347268e-06 0)
(8.205435e-06 -6.963946e-06 2.072112e-26)
(8.838497e-06 -7.039732e-06 -3.525681e-25)
(8.597636e-06 -7.643944e-06 -1.895789e-29)
(7.798789e-06 -7.541461e-06 2.23318e-26)
(7.554671e-06 -1.773302e-06 9.702349e-27)
(6.078361e-06 -9.231214e-07 -2.875935e-28)
(9.538871e-06 -3.526633e-06 4.990176e-27)
(9.961213e-06 -2.86993e-06 -4.651219e-25)
(9.557761e-06 -4.999605e-06 1.25865e-26)
(1.027661e-05 -4.587478e-06 -1.844134e-28)
(9.413308e-06 -6.167331e-06 -4.06256e-30)
(9.970017e-06 -5.971107e-06 -3.997555e-30)
(9.389521e-06 -7.060834e-06 -1.346236e-28)
(9.942011e-06 -7.051342e-06 4.309838e-29)
(9.245517e-06 -7.737498e-06 -1.397542e-28)
(9.942026e-06 -7.827698e-06 -6.903497e-29)
(9.660806e-06 -8.479928e-06 8.398739e-30)
(8.790792e-06 -8.364767e-06 2.51167e-26)
(8.503212e-06 -1.985121e-06 -5.255055e-28)
(6.840594e-06 -1.033941e-06 -4.265655e-25)
(1.072006e-05 -3.937418e-06 -5.535219e-28)
(1.11966e-05 -3.204978e-06 -5.21365e-25)
(1.070972e-05 -5.56648e-06 -1.802009e-28)
(1.151764e-05 -5.106418e-06 -4.974898e-25)
(1.05184e-05 -6.851062e-06 4.270769e-29)
(1.112494e-05 -6.623469e-06 -1.874464e-28)
(1.05189e-05 -7.838344e-06 -1.640577e-25)
(1.106592e-05 -7.797473e-06 4.91932e-29)
(1.037944e-05 -8.598325e-06 -6.63136e-26)
(1.112719e-05 -8.686294e-06 -1.031877e-28)
(1.078973e-05 -9.385854e-06 1.573561e-28)
(9.853126e-06 -9.268047e-06 1.518877e-29)
(9.554451e-06 -2.215048e-06 -1.30882e-26)
(7.688618e-06 -1.153582e-06 -1.709404e-28)
(1.201764e-05 -4.381425e-06 -7.333066e-27)
(1.256142e-05 -3.566774e-06 -5.866271e-25)
(1.195467e-05 -6.1727e-06 -5.896302e-28)
(1.287383e-05 -5.664851e-06 -5.664061e-25)
(1.168638e-05 -7.570525e-06 -1.795615e-26)
(1.236833e-05 -7.321457e-06 -5.400708e-25)
(1.168651e-05 -8.647212e-06 -1.585607e-28)
(1.224614e-05 -8.585328e-06 6.278045e-30)
(1.1552e-05 -9.505641e-06 -2.13022e-29)
(1.234619e-05 -9.589826e-06 -4.542385e-25)
(1.197111e-05 -1.035889e-05 4.290674e-25)
(1.096145e-05 -1.023299e-05 3.30076e-26)
(1.071857e-05 -2.461932e-06 -2.337852e-28)
(8.631428e-06 -1.281187e-06 2.150094e-28)
(1.344418e-05 -4.858554e-06 -7.705134e-27)
(1.406826e-05 -3.953821e-06 -2.338194e-28)
(1.331329e-05 -6.825121e-06 -6.557476e-28)
(1.435721e-05 -6.26302e-06 -2.24542e-28)
(1.295182e-05 -8.347279e-06 -4.319301e-28)
(1.371887e-05 -8.074174e-06 -6.083607e-25)
(1.292577e-05 -9.525103e-06 -1.848507e-28)
(1.352398e-05 -9.451046e-06 2.358023e-28)
(1.278029e-05 -1.047902e-05 -1.85516e-28)
(1.363376e-05 -1.057526e-05 -1.887679e-28)
(1.324093e-05 -1.145655e-05 -5.393377e-25)
(1.212455e-05 -1.128771e-05 -1.271933e-28)
(1.200676e-05 -2.724453e-06 2.150482e-28)
(9.679734e-06 -1.416179e-06 5.98294e-25)
(1.501105e-05 -5.367503e-06 0)
(1.573333e-05 -4.365591e-06 0)
(1.479181e-05 -7.524829e-06 6.040832e-30)
(1.598223e-05 -6.902689e-06 0)
(1.43186e-05 -9.19132e-06 -2.336157e-26)
(1.518501e-05 -8.888955e-06 6.883893e-25)
(1.4255e-05 -1.049762e-05 2.406469e-28)
(1.490025e-05 -1.041006e-05 6.680269e-25)
(1.411326e-05 -1.159141e-05 -1.931006e-28)
(1.501367e-05 -1.169705e-05 -2.390426e-28)
(1.468569e-05 -1.279336e-05 -1.918488e-28)
(1.34047e-05 -1.254273e-05 -3.799142e-28)
(1.343487e-05 -3.002811e-06 4.823551e-28)
(1.084789e-05 -1.558814e-06 6.647227e-25)
(1.673779e-05 -5.91092e-06 0)
(1.758245e-05 -4.804728e-06 1.716475e-30)
(1.64081e-05 -8.280716e-06 2.64034e-28)
(1.777933e-05 -7.593069e-06 3.220847e-28)
(1.57985e-05 -1.012224e-05 2.503724e-26)
(1.68025e-05 -9.787388e-06 2.718159e-28)
(1.568694e-05 -1.160701e-05 2.721669e-28)
(1.64194e-05 -1.149906e-05 6.568558e-25)
(1.562313e-05 -1.293734e-05 -2.405416e-28)
(1.65579e-05 -1.30194e-05 -4.327076e-25)
(1.638804e-05 -1.448471e-05 0)
(1.490635e-05 -1.415146e-05 1.887494e-28)
(1.50271e-05 -3.299649e-06 2.721069e-28)
(1.215559e-05 -1.710048e-06 2.702298e-28)
(1.866091e-05 -6.498034e-06 -9.570484e-27)
(1.965602e-05 -5.276822e-06 -3.695784e-28)
(1.820967e-05 -9.115056e-06 3.298795e-28)
(1.980314e-05 -8.351168e-06 8.824942e-25)
(1.745569e-05 -1.118145e-05 -3.020246e-26)
(1.864557e-05 -1.080997e-05 7.739582e-30)
(1.73068e-05 -1.291223e-05 -2.54643e-28)
(1.818813e-05 -1.279917e-05 -8.241182e-25)
(1.734079e-05 -1.456497e-05 -2.718195e-28)
(1.837871e-05 -1.465198e-05 -2.129227e-28)
(1.83862e-05 -1.65989e-05 3.081177e-29)
(1.664206e-05 -1.613015e-05 1.835518e-28)
(1.681948e-05 -3.61879e-06 -3.710567e-28)
(1.362923e-05 -1.870006e-06 -3.392138e-28)
(2.083931e-05 -7.142141e-06 -1.366905e-29)
(2.201329e-05 -5.784879e-06 -1.002436e-24)
(2.027951e-05 -1.006281e-05 3.580037e-28)
(2.213463e-05 -9.188983e-06 7.584584e-28)
(1.941679e-05 -1.244843e-05 -2.977196e-28)
(2.081782e-05 -1.198769e-05 0)
(1.929514e-05 -1.455763e-05 -7.275651e-26)
(2.034494e-05 -1.43744e-05 -3.220183e-28)
(1.945754e-05 -1.666799e-05 -9.510059e-26)
(2.066333e-05 -1.670944e-05 5.208465e-29)
(2.081801e-05 -1.918169e-05 6.530839e-29)
(1.877957e-05 -1.865354e-05 -3.926687e-30)
(1.886138e-05 -3.959325e-06 -7.550551e-28)
(1.530122e-05 -2.035034e-06 -8.75268e-25)
(2.335398e-05 -7.844907e-06 -1.569155e-29)
(2.47359e-05 -6.320058e-06 -8.815168e-28)
(2.271779e-05 -1.11317e-05 4.007899e-28)
(2.488088e-05 -1.009527e-05 1.078736e-24)
(2.178911e-05 -1.393579e-05 -2.423391e-29)
(2.343547e-05 -1.330561e-05 0)
(2.17537e-05 -1.654751e-05 7.874081e-26)
(2.298938e-05 -1.619154e-05 -2.423738e-29)
(2.205959e-05 -1.919242e-05 -1.006224e-25)
(2.345079e-05 -1.909163e-05 -3.732742e-28)
(2.36333e-05 -2.19878e-05 9.117598e-29)
(2.132561e-05 -2.152719e-05 3.038907e-28)
(2.121603e-05 -4.30868e-06 -8.450531e-28)
(1.720953e-05 -2.194883e-06 -8.044102e-28)
(2.631309e-05 -8.585209e-06 -1.690716e-29)
(2.793308e-05 -6.854993e-06 -1.243142e-24)
(2.564793e-05 -1.228807e-05 4.490663e-28)
(2.818169e-05 -1.102556e-05 4.487145e-28)
(2.468356e-05 -1.558457e-05 0)
(2.664068e-05 -1.469709e-05 4.545829e-28)
(2.473295e-05 -1.875715e-05 -3.725859e-28)
(2.623625e-05 -1.81478e-05 -3.010102e-29)
(2.506933e-05 -2.185494e-05 -3.23952e-28)
(2.679332e-05 -2.162317e-05 -8.820874e-25)
(2.679135e-05 -2.469337e-05 2.103686e-25)
(2.399242e-05 -2.403472e-05 5.563839e-25)
(2.396432e-05 -4.639873e-06 -6.467414e-26)
(1.937616e-05 -2.329889e-06 -9.336308e-25)
(2.985718e-05 -9.312944e-06 -5.242444e-28)
(3.173452e-05 -7.332445e-06 -5.255494e-28)
(2.922832e-05 -1.345457e-05 4.542111e-28)
(3.221623e-05 -1.189798e-05 -5.717192e-28)
(2.824469e-05 -1.728529e-05 8.396256e-26)
(3.06135e-05 -1.605137e-05 1.301144e-24)
(2.83393e-05 -2.104029e-05 -8.276114e-28)
(3.024268e-05 -2.011962e-05 -5.34143e-28)
(2.851888e-05 -2.444673e-05 -1.231986e-25)
(3.08452e-05 -2.425754e-05 -1.333428e-24)
(3.05079e-05 -2.760629e-05 -1.414257e-24)
(2.628164e-05 -2.558592e-05 -6.080909e-25)
(2.715746e-05 -4.893553e-06 -4.754964e-28)
(2.182228e-05 -2.403506e-06 -4.711674e-28)
(3.416394e-05 -9.945426e-06 -5.731442e-28)
(3.626846e-05 -7.675689e-06 0)
(3.366237e-05 -1.451718e-05 3.705818e-26)
(3.718503e-05 -1.258969e-05 -1.507311e-24)
(3.267037e-05 -1.891186e-05 1.9298e-29)
(3.556478e-05 -1.720686e-05 5.224223e-28)
(3.280731e-05 -2.336902e-05 -1.43866e-27)
(3.518161e-05 -2.191431e-05 -1.440459e-24)
(3.289526e-05 -2.744573e-05 -1.365522e-27)
(3.577335e-05 -2.68354e-05 -1.49679e-24)
(3.511058e-05 -3.083795e-05 5.183399e-29)
(3.003266e-05 -2.878488e-05 -1.133928e-27)
(3.085416e-05 -5.016006e-06 0)
(2.464927e-05 -2.384212e-06 -5.84437e-28)
(3.935639e-05 -1.035234e-05 -1.264196e-27)
(4.156667e-05 -7.767768e-06 7.20139e-28)
(3.915395e-05 -1.530612e-05 -1.259457e-27)
(4.328482e-05 -1.291808e-05 -1.766702e-24)
(3.814067e-05 -2.02356e-05 -1.129365e-27)
(4.17285e-05 -1.795792e-05 0)
(3.82129e-05 -2.541096e-05 -1.655643e-27)
(4.120773e-05 -2.328352e-05 -1.568104e-24)
(3.805963e-05 -3.0254e-05 -4.65306e-29)
(4.16028e-05 -2.901757e-05 -5.250924e-28)
(4.041923e-05 -3.376383e-05 1.363759e-24)
(3.438075e-05 -3.20174e-05 4.874097e-28)
(3.526398e-05 -4.944155e-06 -1.901043e-25)
(2.796373e-05 -2.214882e-06 -1.121656e-24)
(4.558219e-05 -1.033695e-05 1.424836e-27)
(4.772633e-05 -7.410793e-06 1.215741e-24)
(4.595744e-05 -1.561172e-05 6.998508e-28)
(5.062223e-05 -1.264293e-05 2.773783e-24)
(4.487362e-05 -2.104018e-05 -6.341491e-28)
(4.932233e-05 -1.806077e-05 1.537376e-27)
(4.466689e-05 -2.691967e-05 -6.339993e-28)
(4.85001e-05 -2.404735e-05 -1.299885e-27)
(4.402579e-05 -3.255719e-05 4.270211e-28)
(4.835427e-05 -3.060058e-05 5.382914e-29)
(4.626938e-05 -3.611345e-05 3.645806e-28)
(3.939823e-05 -3.486207e-05 4.722859e-25)
(4.037124e-05 -4.503681e-06 1.544652e-28)
(3.180392e-05 -1.819085e-06 -6.450227e-28)
(5.278502e-05 -9.674845e-06 3.152357e-27)
(5.488673e-05 -6.409879e-06 8.062548e-28)
(5.41081e-05 -1.51013e-05 3.921165e-27)
(5.919324e-05 -1.140381e-05 1.087679e-24)
(5.30737e-05 -2.114431e-05 -1.541906e-25)
(5.848246e-05 -1.719452e-05 3.71384e-24)
(5.227219e-05 -2.776192e-05 -6.121705e-28)
(5.719542e-05 -2.388847e-05 -2.257581e-24)
(5.06813e-05 -3.419355e-05 -1.212072e-25)
(5.57409e-05 -3.107407e-05 1.703276e-28)
(5.239398e-05 -3.758276e-05 2.080218e-28)
(4.443243e-05 -3.698993e-05 5.450525e-25)
(4.63438e-05 -3.559045e-06 1.038125e-25)
(3.643863e-05 -1.170492e-06 -5.546141e-32)
(6.127973e-05 -8.112303e-06 8.993128e-28)
(6.348881e-05 -4.537402e-06 -3.09288e-31)
(6.358668e-05 -1.343023e-05 -2.147864e-26)
(6.936203e-05 -8.881274e-06 1.830623e-27)
(6.266961e-05 -2.004918e-05 1.008703e-25)
(6.948787e-05 -1.482119e-05 2.275263e-27)
(6.076051e-05 -2.724588e-05 -7.816196e-28)
(6.827002e-05 -2.18469e-05 -1.398245e-27)
(5.754823e-05 -3.449968e-05 -2.444108e-25)
(6.504515e-05 -2.983101e-05 8.347484e-28)
(6.067828e-05 -3.975361e-05 2.700582e-28)
(4.967602e-05 -3.887189e-05 -4.863368e-25)
(5.362224e-05 -1.974018e-06 -1.136303e-25)
(4.140086e-05 5.062816e-08 -1.094288e-30)
(7.162666e-05 -5.299599e-06 9.27259e-28)
(7.384034e-05 -1.370428e-06 -4.364418e-30)
(7.535096e-05 -1.014645e-05 -5.244455e-26)
(8.208249e-05 -4.664403e-06 1.412902e-24)
(7.527787e-05 -1.661996e-05 3.531144e-26)
(8.36608e-05 -1.048972e-05 1.449373e-24)
(7.273506e-05 -2.451565e-05 3.37601e-25)
(8.425153e-05 -1.765801e-05 1.136697e-27)
(6.828994e-05 -3.513617e-05 7.178035e-28)
(8.07937e-05 -2.773022e-05 4.992708e-24)
(7.86221e-05 -4.762425e-05 0)
(5.988926e-05 -4.621557e-05 -3.937037e-29)
(6.165236e-05 8.408864e-07 0)
(4.745715e-05 1.978491e-06 -2.15881e-30)
(8.434261e-05 -7.371646e-07 1.059885e-27)
(8.769444e-05 3.713258e-06 9.463129e-30)
(9.034986e-05 -4.958236e-06 2.200948e-27)
(9.877803e-05 2.870053e-06 1.090435e-27)
(9.262961e-05 -1.142952e-05 3.251987e-25)
(0.0001020295 -3.5454e-06 1.137719e-27)
(9.262705e-05 -2.087899e-05 1.207025e-25)
(0.0001047523 -1.01759e-05 2.241023e-24)
(9.155305e-05 -4.044934e-05 1.464388e-27)
(0.0001098524 -2.654773e-05 1.328745e-27)
(0.0001185056 -6.970225e-05 -4.346618e-28)
(8.608817e-05 -6.793256e-05 -1.199677e-27)
(7.351993e-05 5.054382e-06 -2.793243e-25)
(6.119211e-05 3.546785e-06 -1.054995e-27)
(0.0001021826 7.305263e-06 -5.703239e-26)
(0.0001074577 1.016026e-05 2.250595e-29)
(0.0001104874 4.31011e-06 3.028847e-29)
(0.0001173912 1.685253e-05 -1.348187e-27)
(0.0001140166 -2.213583e-06 2.440345e-27)
(0.0001266749 1.293129e-05 0)
(0.0001217331 -1.5426e-05 2.382508e-27)
(0.0001393542 -1.752098e-06 5.097049e-24)
(0.0001374857 -5.645306e-05 -2.469697e-24)
(0.0001702275 -4.018026e-05 9.18404e-28)
(0.0002052512 -0.000120121 -3.24725e-27)
(0.0001440135 -0.0001196246 -3.731988e-24)
(9.515475e-05 8.895452e-06 3.496995e-25)
(7.219372e-05 6.93939e-06 -2.034723e-24)
(0.0001227692 1.970202e-05 -1.363516e-27)
(0.000119964 2.227619e-05 -1.511372e-27)
(0.0001336865 2.548549e-05 -1.37889e-27)
(0.0001474299 3.369109e-05 -6.517499e-25)
(0.0001521187 1.358023e-05 1.61126e-27)
(0.0001753742 3.042425e-05 -6.562738e-29)
(0.0001876644 -2.516336e-05 3.039544e-24)
(0.0002174393 2.747983e-08 1.408367e-27)
(0.0002404886 -0.0001039952 -4.630482e-23)
(0.0002980354 -7.69395e-05 1.957233e-23)
(0.0003869539 -0.00021297 -4.681724e-27)
(0.0002736343 -0.0002231744 -1.625942e-23)
(9.701949e-05 2.055611e-05 2.926801e-25)
(7.147906e-05 1.289332e-05 -1.231214e-27)
(0.0001446426 3.626814e-05 -3.040388e-27)
(0.0001432402 3.6055e-05 -2.394201e-25)
(0.0001891476 3.868626e-05 -1.582742e-27)
(0.0001999748 5.010365e-05 2.446947e-28)
(0.0002407902 1.725442e-05 -2.252944e-24)
(0.000258492 4.336654e-05 -3.624417e-29)
(0.0003259274 -4.956976e-05 -5.196002e-24)
(0.0003664156 -1.293545e-05 -3.208543e-27)
(0.0004410358 -0.0001795302 -2.247595e-23)
(0.0005213378 -0.0001315757 2.211192e-27)
(0.0007015462 -0.0003400611 -1.84649e-27)
(0.0005365895 -0.0003864318 -4.139677e-23)
(0.0001174153 2.852154e-05 1.671053e-27)
(9.039368e-05 1.609455e-05 1.432254e-27)
(0.000198792 4.997352e-05 -1.826797e-25)
(0.0001810915 5.018156e-05 -3.013001e-24)
(0.0002694891 5.499165e-05 7.232321e-25)
(0.0002652942 6.924688e-05 1.293542e-24)
(0.0003843903 1.386826e-05 -2.971017e-27)
(0.0003994754 4.458978e-05 5.366586e-27)
(0.0005620171 -9.305795e-05 -8.535584e-24)
(0.0006035873 -3.997644e-05 -1.296708e-23)
(0.0007789882 -0.000282499 -2.446297e-28)
(0.0008593106 -0.0001928629 5.493934e-27)
(0.00117044 -0.0004627101 2.588472e-25)
(0.0009941372 -0.0005824725 -8.24213e-25)
(0.0001531502 3.770977e-05 5.062905e-27)
(0.0001311677 1.410431e-05 -1.321052e-24)
(0.0002475721 6.960593e-05 -1.538249e-24)
(0.0002202153 6.512924e-05 3.615543e-27)
(0.0003964025 5.919702e-05 7.399724e-27)
(0.0003566177 8.290944e-05 2.040424e-27)
(0.0006191277 -8.318768e-06 1.364068e-27)
(0.0006010125 3.212225e-05 8.998527e-24)
(0.000900771 -0.0001375125 -1.071831e-23)
(0.0009059707 -6.607706e-05 5.455126e-27)
(0.00124141 -0.0003633772 2.575133e-25)
(0.001260786 -0.0002291328 8.971101e-24)
(0.00169271 -0.0005102348 -1.458684e-21)
(0.001588842 -0.0005678854 -1.081254e-20)
(0.0001974397 4.149698e-05 -3.600604e-25)
(0.0001413494 1.836032e-05 -8.662551e-29)
(0.0003275705 7.841579e-05 -1.147718e-29)
(0.0002700219 7.369098e-05 -1.688872e-29)
(0.0005622269 5.642591e-05 3.031851e-29)
(0.0004862412 7.866531e-05 -1.548792e-29)
(0.0008916257 -2.511826e-05 9.57138e-27)
(0.0008151092 2.108161e-05 6.184056e-24)
(0.001266567 -0.0001554049 -2.139419e-26)
(0.001200256 -7.516788e-05 -6.942743e-24)
(0.001699154 -6.061105e-05 1.156526e-20)
(0.001662956 -0.0002176071 4.295352e-20)
(0.002325522 -0.0004495472 1.533754e-19)
(0.002149515 0.001138256 -1.702772e-19)
(0.0002135517 5.07121e-05 -1.674915e-27)
(0.0001310105 2.906964e-05 5.402865e-24)
(0.0004260999 7.418899e-05 7.114185e-25)
(0.00031585 7.670328e-05 -5.572213e-30)
(0.0007340016 4.474307e-05 -7.078769e-27)
(0.0005969366 7.197202e-05 -7.015119e-29)
(0.001126259 -2.7774e-05 -3.015371e-23)
(0.0009780033 1.887342e-05 1.394394e-25)
(0.001573295 0.0001826089 -7.674584e-21)
(0.001474761 -5.596419e-05 1.244888e-19)
(0.002070293 0.001930313 3.942465e-19)
(0.002169467 -0.0001480062 1.310001e-18)
(0.003164217 -0.000297714 1.070677e-19)
(0.002584027 0.005820757 -5.262914e-19)
(0.000232836 5.52448e-05 -1.636532e-27)
(0.0001123021 3.856664e-05 -1.636755e-27)
(0.0004859084 7.474154e-05 -5.472795e-29)
(0.0003308396 8.117315e-05 -2.620601e-29)
(0.0008357263 4.731179e-05 3.987181e-24)
(0.0006330602 8.074547e-05 3.720934e-26)
(0.001267603 0.0002276069 2.02561e-20)
(0.001066972 3.353952e-05 1.040241e-20)
(0.001874324 0.001931831 -5.014095e-19)
(0.00174798 -1.794286e-05 1.980968e-19)
(0.002403099 0.006360149 1.022403e-18)
(0.003198027 6.86727e-05 2.97006e-19)
(0.004256737 -8.905443e-05 7.080166e-18)
(0.002979082 0.013107 2.007269e-18)
(0.0002091703 6.454358e-05 -2.61541e-29)
(0.0001190056 3.506539e-05 0)
(0.0004778156 8.742759e-05 1.295753e-24)
(0.0003159526 8.933204e-05 -8.105126e-26)
(0.0008372301 0.0001792605 5.055156e-21)
(0.0006018767 0.000103991 -3.523645e-21)
(0.00131113 0.00174482 1.934273e-19)
(0.001177631 7.356363e-05 -1.641831e-19)
(0.001926781 0.005956422 1.053597e-18)
(0.002135238 4.782279e-05 -7.221913e-19)
(0.003336885 0.01275232 -2.409451e-18)
(0.003530166 5.795333e-05 -5.484244e-19)
(0.006882243 0.0005621931 6.682186e-18)
(0.003394253 0.02219443 1.146049e-18)
(0.0002239626 5.958333e-05 -8.056392e-26)
(0.0001501742 2.358278e-05 -1.493947e-27)
(0.0004254146 0.0001053128 -2.17742e-22)
(0.0003090631 8.823863e-05 3.031348e-22)
(0.0007681508 0.001020034 3.595647e-19)
(0.0005823039 0.0001266674 5.624154e-21)
(0.001274611 0.005079095 -9.124913e-19)
(0.001551574 0.0001797535 -1.092792e-18)
(0.001903063 0.01191998 1.018584e-18)
(0.002713225 0.0001559153 -1.904094e-18)
(0.002833302 0.02115993 2.369854e-18)
(0.004205009 0.0001301171 -3.451286e-19)
(0.006258017 0.0001179027 -2.146132e-18)
(0.005837905 0.03242632 3.509514e-17)
(0.0002341607 5.204669e-05 7.121559e-26)
(0.0001308417 2.39155e-05 8.575665e-24)
(0.0003842672 0.0004816718 1.746942e-20)
(0.0003385743 7.698427e-05 8.504481e-20)
(0.0006500886 0.00329789 2.729217e-20)
(0.0006983649 0.0001391092 4.7025e-19)
(0.001388189 0.00955216 7.008652e-19)
(0.001592069 0.000186481 2.718548e-18)
(0.001903076 0.01902233 8.775968e-19)
(0.004173203 0.0005120567 -1.517319e-18)
(0.002750543 0.030809 -7.665659e-18)
(0.005192961 0.0002482749 2.11855e-18)
(0.007533282 0.0001750589 -1.500956e-17)
(0.003752826 0.04442465 8.187736e-19)
(0.0001955177 7.716719e-05 -1.541436e-21)
(0.0001013688 2.378473e-05 2.28949e-21)
(0.0003429162 0.001788336 -5.023839e-21)
(0.0004020512 7.167889e-05 2.525158e-20)
(0.0005517019 0.006915923 1.04874e-19)
(0.0009461895 0.0001540839 3.309788e-19)
(0.001046678 0.01519075 3.418328e-18)
(0.00194609 0.0002231058 2.99184e-19)
(0.002678948 0.02661461 3.922202e-18)
(0.00351574 0.0002537444 -4.508726e-18)
(0.004304641 0.04018681 -1.831826e-17)
(0.005419109 0.0001805442 2.631513e-18)
(0.01294364 0.001483953 -6.265009e-18)
(0.004022787 0.05651994 3.130484e-17)
(0.0001608319 0.0004350763 -1.327227e-20)
(0.0001247641 1.942525e-05 4.282676e-20)
(0.0002840937 0.00397053 1.627955e-19)
(0.0005114335 7.942025e-05 1.812987e-19)
(0.0004719337 0.01118084 7.173807e-19)
(0.001260953 0.0001723579 -5.096354e-21)
(0.0008738414 0.02165977 4.177628e-19)
(0.002461184 0.0002544827 5.164698e-18)
(0.0016436 0.03486649 -7.427478e-18)
(0.004088463 0.0002727403 3.331044e-18)
(0.002820087 0.05013592 2.024722e-17)
(0.006066532 0.0001088006 -2.212479e-18)
(0.009177528 -0.0003132312 8.199334e-18)
(0.006690505 0.06752551 -6.89339e-17)
(0.0001183851 0.001299487 -3.476635e-20)
(0.0001629305 2.152458e-05 1.470213e-19)
(0.0002200292 0.006510527 -7.71836e-19)
(0.0006487505 8.728536e-05 3.943546e-19)
(0.0003895505 0.01552655 -1.451142e-18)
(0.001640302 0.000189894 -3.175596e-18)
(0.0007508355 0.02790653 -1.438218e-18)
(0.002997725 0.0002718548 1.851108e-18)
(0.001381955 0.04305452 1.447432e-18)
(0.004813392 0.0002674846 -2.7277e-18)
(0.002288141 0.06019272 3.406693e-18)
(0.006972729 -3.762634e-05 1.761636e-17)
(0.009238898 -0.001009245 1.230927e-17)
(0.003796161 0.07852178 3.36616e-17)
(0.0001052093 0.002745094 -2.684035e-19)
(0.0001802916 1.831163e-05 1.984194e-19)
(0.000330325 0.009393135 -4.5142e-19)
(0.0006811583 6.520563e-05 -4.579364e-19)
(0.0003876903 0.01940324 1.70304e-18)