/*--------------------------------*- C++ -*----------------------------------*\
| =========                 |                                                 |
| \\      /  F ield         | OpenFOAM: The Open Source CFD Toolbox           |
|  \\    /   O peration     | Version:  2206                                  |
|   \\  /    A nd           | Website:  www.openfoam.com                      |
|    \\/     M anipulation  |                                                 |
\*---------------------------------------------------------------------------*/
FoamFile
{
    version     2.0;
    format      ascii;
    arch        "LSB;label=32;scalar=64";
    class       volScalarField;
    location    "2.4";
    object      k.b;
}
// * * * * * * * * * * * * * * * * * * * * * * * * * * * * * * * * * * * * * //

dimensions      [0 2 -2 0 0 0 0];

internalField   nonuniform List<scalar> 
13078
(
4.106422e-14
3.358908e-11
4.966898e-11
5.021242e-11
5.055493e-11
5.097446e-11
5.146653e-11
4.651396e-14
2.878656e-11
4.926316e-11
5.015991e-11
5.053808e-11
5.096219e-11
5.145487e-11
8.899521e-14
2.874423e-11
4.918242e-11
5.01211e-11
5.051374e-11
5.094475e-11
5.143997e-11
5.191707e-14
2.894398e-11
4.916383e-11
5.009115e-11
5.049056e-11
5.092656e-11
5.142396e-11
4.160672e-14
2.902002e-11
4.915231e-11
5.007529e-11
5.047152e-11
5.090938e-11
5.140822e-11
3.931131e-14
2.906341e-11
4.914849e-11
5.006548e-11
5.046251e-11
5.089488e-11
5.139327e-11
3.921259e-14
2.907904e-11
4.914097e-11
5.005876e-11
5.045636e-11
5.088899e-11
5.138026e-11
4.061854e-14
2.907759e-11
4.913278e-11
5.005506e-11
5.045276e-11
5.0885e-11
5.137587e-11
4.347742e-14
2.907255e-11
4.91347e-11
5.005416e-11
5.04508e-11
5.088229e-11
5.137273e-11
4.751981e-14
2.905812e-11
4.913596e-11
5.005398e-11
5.044968e-11
5.088044e-11
5.137037e-11
5.267591e-14
2.903725e-11
4.91366e-11
5.005413e-11
5.044903e-11
5.08791e-11
5.136844e-11
5.915723e-14
2.901145e-11
4.913668e-11
5.005438e-11
5.044863e-11
5.087805e-11
5.136684e-11
6.732434e-14
2.898184e-11
4.913631e-11
5.005459e-11
5.044835e-11
5.087719e-11
5.13654e-11
7.772662e-14
2.894879e-11
4.913554e-11
5.005464e-11
5.044791e-11
5.087635e-11
5.136401e-11
9.089316e-14
2.891288e-11
4.913383e-11
5.005248e-11
5.044453e-11
5.08752e-11
5.136267e-11
1.074886e-13
2.887425e-11
4.913162e-11
5.004965e-11
5.044191e-11
5.087416e-11
5.136126e-11
1.284368e-13
2.88332e-11
4.912994e-11
5.004928e-11
5.044123e-11
5.087322e-11
5.135982e-11
1.549313e-13
2.878976e-11
4.912798e-11
5.004898e-11
5.044059e-11
5.087223e-11
5.13583e-11
1.884832e-13
2.874369e-11
4.912576e-11
5.004864e-11
5.043976e-11
5.087089e-11
5.135672e-11
2.310191e-13
2.869526e-11
4.912327e-11
5.0048e-11
5.043583e-11
5.086497e-11
5.135456e-11
2.849664e-13
2.864415e-11
4.912059e-11
5.004726e-11
5.043109e-11
5.086026e-11
5.135235e-11
3.534123e-13
2.859042e-11
4.911776e-11
5.004677e-11
5.042969e-11
5.08585e-11
5.135037e-11
4.402365e-13
2.853378e-11
4.911465e-11
5.004617e-11
5.042854e-11
5.085646e-11
5.134777e-11
5.503242e-13
2.847412e-11
4.911131e-11
5.004554e-11
5.042696e-11
5.085006e-11
5.133826e-11
6.897767e-13
2.841112e-11
4.910772e-11
5.004484e-11
5.042524e-11
5.084252e-11
5.13306e-11
8.6618e-13
2.834447e-11
4.910374e-11
5.004409e-11
5.042372e-11
5.083944e-11
5.132695e-11
1.088878e-12
2.8275e-11
4.909945e-11
5.004331e-11
5.04221e-11
5.083668e-11
5.132264e-11
1.368757e-12
2.819387e-11
4.909428e-11
5.004249e-11
5.042027e-11
5.083344e-11
5.131204e-11
1.719042e-12
2.812157e-11
4.908955e-11
5.004164e-11
5.041829e-11
5.08298e-11
5.13002e-11
2.147046e-12
2.791752e-11
4.90778e-11
5.004056e-11
5.041624e-11
5.082635e-11
5.129389e-11
2.673424e-12
2.769573e-11
4.907436e-11
5.00398e-11
5.041408e-11
5.082273e-11
5.128844e-11
3.34254e-12
2.733358e-11
4.906604e-11
5.003877e-11
5.041203e-11
5.081885e-11
5.128233e-11
4.166844e-12
2.687903e-11
4.902005e-11
5.003105e-11
5.040917e-11
5.081435e-11
5.127603e-11
5.173386e-12
2.672212e-11
4.898504e-11
5.002366e-11
5.040462e-11
5.080815e-11
5.12677e-11
6.389238e-12
2.656389e-11
4.896597e-11
5.001112e-11
5.038056e-11
5.07946e-11
5.125375e-11
7.839222e-12
2.639596e-11
4.893583e-11
4.999123e-11
5.0348e-11
5.075341e-11
5.122799e-11
9.5406e-12
2.621945e-11
4.889025e-11
4.99532e-11
5.030954e-11
5.070984e-11
5.119978e-11
1.149284e-11
2.602851e-11
4.882735e-11
4.990642e-11
5.026725e-11
5.067243e-11
5.116869e-11
1.365082e-11
2.582077e-11
4.875492e-11
4.985906e-11
5.023299e-11
5.064964e-11
5.115567e-11
1.586747e-11
2.543468e-11
4.867599e-11
4.981394e-11
5.019232e-11
5.061756e-11
5.112964e-11
1.8048e-11
2.472118e-11
4.858899e-11
4.97506e-11
5.012714e-11
5.055493e-11
5.107973e-11
2.030692e-11
2.402974e-11
4.84315e-11
4.963098e-11
5.001572e-11
5.043586e-11
5.092167e-11
2.236361e-11
2.371933e-11
4.826209e-11
4.947828e-11
4.982268e-11
5.024175e-11
5.068889e-11
2.398659e-11
2.344987e-11
4.810968e-11
4.933111e-11
4.961794e-11
4.995906e-11
5.045523e-11
2.496037e-11
2.310754e-11
4.79824e-11
4.91599e-11
4.943221e-11
4.972885e-11
5.010569e-11
2.508392e-11
2.257397e-11
4.784676e-11
4.895041e-11
4.921359e-11
4.948743e-11
4.979151e-11
2.456961e-11
2.196658e-11
4.765459e-11
4.877296e-11
4.894614e-11
4.919012e-11
4.949107e-11
2.310602e-11
2.160976e-11
4.74596e-11
4.859686e-11
4.870466e-11
4.888531e-11
4.914162e-11
2.070622e-11
2.123304e-11
4.72589e-11
4.837926e-11
4.850217e-11
4.867265e-11
4.889385e-11
1.752367e-11
2.087245e-11
4.707779e-11
4.818164e-11
4.827863e-11
4.843145e-11
4.868431e-11
1.374424e-11
2.019122e-11
4.690716e-11
4.802949e-11
4.811895e-11
4.826166e-11
4.847147e-11
9.585534e-12
1.917003e-11
4.668581e-11
4.786206e-11
4.797222e-11
4.814368e-11
4.835781e-11
5.87773e-12
1.872554e-11
4.650049e-11
4.779925e-11
4.792968e-11
4.812946e-11
4.831064e-11
2.926581e-12
1.848194e-11
4.640314e-11
4.773145e-11
4.788828e-11
4.809348e-11
4.82947e-11
9.98397e-13
1.830999e-11
4.636368e-11
4.771442e-11
4.789782e-11
4.811435e-11
4.836081e-11
2.286759e-13
1.821571e-11
4.635906e-11
4.772953e-11
4.793533e-11
4.817287e-11
4.844154e-11
7.445166e-13
1.829445e-11
4.637991e-11
4.77307e-11
4.792543e-11
4.81601e-11
4.843909e-11
2.501957e-12
1.850237e-11
4.642551e-11
4.772999e-11
4.790471e-11
4.811997e-11
4.836847e-11
5.241476e-12
1.877448e-11
4.650501e-11
4.776715e-11
4.791966e-11
4.81194e-11
4.831499e-11
8.777701e-12
1.913855e-11
4.663098e-11
4.784071e-11
4.796477e-11
4.815261e-11
4.831508e-11
1.27478e-11
1.969047e-11
4.683284e-11
4.790775e-11
4.801358e-11
4.818663e-11
4.840433e-11
1.688267e-11
2.077412e-11
4.707619e-11
4.809847e-11
4.818042e-11
4.831668e-11
4.851836e-11
2.027094e-11
2.151573e-11
4.725336e-11
4.824763e-11
4.833856e-11
4.848243e-11
4.873071e-11
2.284657e-11
2.191449e-11
4.743182e-11
4.84361e-11
4.855488e-11
4.87229e-11
4.895423e-11
2.45279e-11
2.226663e-11
4.762266e-11
4.865244e-11
4.877002e-11
4.897408e-11
4.922547e-11
2.52133e-11
2.250543e-11
4.781323e-11
4.884477e-11
4.903813e-11
4.930206e-11
4.958498e-11
2.501306e-11
2.297822e-11
4.80087e-11
4.904688e-11
4.932651e-11
4.962114e-11
4.989991e-11
2.429448e-11
2.344556e-11
4.8143e-11
4.927983e-11
4.95549e-11
4.987588e-11
5.023139e-11
2.288972e-11
2.375083e-11
4.825856e-11
4.945221e-11
4.975835e-11
5.009365e-11
5.057463e-11
2.097265e-11
2.399505e-11
4.839545e-11
4.95858e-11
4.994501e-11
5.035406e-11
5.079303e-11
1.876905e-11
2.428316e-11
4.854522e-11
4.971565e-11
5.009742e-11
5.052076e-11
5.099974e-11
1.64699e-11
2.484412e-11
4.867477e-11
4.981523e-11
5.018624e-11
5.061324e-11
5.113039e-11
1.426788e-11
2.540064e-11
4.875479e-11
4.986483e-11
5.023664e-11
5.065701e-11
5.11563e-11
1.213e-11
2.572002e-11
4.88224e-11
4.99085e-11
5.027464e-11
5.067881e-11
5.116633e-11
1.013333e-11
2.590683e-11
4.888468e-11
4.995074e-11
5.030945e-11
5.0702e-11
5.118427e-11
8.366116e-12
2.616566e-11
4.893553e-11
4.998743e-11
5.034438e-11
5.074171e-11
5.122396e-11
6.846947e-12
2.638867e-11
4.896408e-11
5.000906e-11
5.037038e-11
5.078343e-11
5.124825e-11
5.572156e-12
2.658032e-11
4.898203e-11
5.001817e-11
5.039067e-11
5.080441e-11
5.12628e-11
4.507019e-12
2.675424e-11
4.899646e-11
5.002611e-11
5.040719e-11
5.081133e-11
5.127106e-11
3.625814e-12
2.689747e-11
4.902759e-11
5.003207e-11
5.040999e-11
5.081545e-11
5.12772e-11
2.906077e-12
2.734354e-11
4.907084e-11
5.003911e-11
5.041233e-11
5.081927e-11
5.128293e-11
2.323231e-12
2.769767e-11
4.90773e-11
5.003986e-11
5.041418e-11
5.082295e-11
5.128879e-11
1.863318e-12
2.791334e-11
4.90793e-11
5.004047e-11
5.041617e-11
5.082642e-11
5.129407e-11
1.491329e-12
2.81138e-11
4.909009e-11
5.004142e-11
5.041814e-11
5.082972e-11
5.130013e-11
1.188353e-12
2.818372e-11
4.909415e-11
5.004216e-11
5.042004e-11
5.083325e-11
5.131194e-11
9.467129e-13
2.826371e-11
4.909889e-11
5.004299e-11
5.042179e-11
5.08364e-11
5.132246e-11
7.546751e-13
2.833279e-11
4.910292e-11
5.004377e-11
5.042339e-11
5.083914e-11
5.13267e-11
6.026819e-13
2.839964e-11
4.91068e-11
5.004453e-11
5.042493e-11
5.084223e-11
5.133035e-11
4.830847e-13
2.846319e-11
4.911038e-11
5.004519e-11
5.042666e-11
5.084982e-11
5.133802e-11
3.888044e-13
2.85236e-11
4.911373e-11
5.004588e-11
5.042825e-11
5.085617e-11
5.134751e-11
3.146689e-13
2.858113e-11
4.911689e-11
5.004651e-11
5.042942e-11
5.085825e-11
5.135009e-11
2.562016e-13
2.863582e-11
4.911979e-11
5.004707e-11
5.043091e-11
5.086005e-11
5.135212e-11
2.10028e-13
2.868795e-11
4.912261e-11
5.004788e-11
5.043574e-11
5.086485e-11
5.135441e-11
1.736289e-13
2.873742e-11
4.912523e-11
5.00486e-11
5.04397e-11
5.087081e-11
5.135662e-11
1.447958e-13
2.878458e-11
4.912764e-11
5.004897e-11
5.044055e-11
5.087218e-11
5.135819e-11
1.219058e-13
2.882918e-11
4.912978e-11
5.004933e-11
5.044123e-11
5.087316e-11
5.135969e-11
1.037036e-13
2.887146e-11
4.913164e-11
5.004978e-11
5.044194e-11
5.087411e-11
5.136115e-11
8.920391e-14
2.891144e-11
4.91341e-11
5.005271e-11
5.044463e-11
5.087518e-11
5.136257e-11
7.769091e-14
2.89489e-11
4.91361e-11
5.005494e-11
5.044804e-11
5.087633e-11
5.136387e-11
6.871621e-14
2.898379e-11
4.913719e-11
5.005496e-11
5.044848e-11
5.087712e-11
5.136518e-11
6.178362e-14
2.901565e-11
4.913792e-11
5.005481e-11
5.044873e-11
5.087786e-11
5.136643e-11
5.659605e-14
2.904438e-11
4.913828e-11
5.005459e-11
5.0449e-11
5.087869e-11
5.136778e-11
5.28589e-14
2.906928e-11
4.913816e-11
5.005436e-11
5.044939e-11
5.087967e-11
5.136934e-11
5.006646e-14
2.908928e-11
4.913745e-11
5.005421e-11
5.044998e-11
5.088095e-11
5.137117e-11
4.812171e-14
2.910216e-11
4.913587e-11
5.005436e-11
5.045101e-11
5.088278e-11
5.137356e-11
4.703475e-14
2.91147e-11
4.914374e-11
5.005653e-11
5.045308e-11
5.088547e-11
5.137698e-11
4.703959e-14
2.911421e-11
4.914967e-11
5.006042e-11
5.04568e-11
5.088964e-11
5.138881e-11
4.873392e-14
2.909113e-11
4.914908e-11
5.006539e-11
5.04625e-11
5.090201e-11
5.140251e-11
5.320094e-14
2.904759e-11
4.915249e-11
5.00745e-11
5.047741e-11
5.091702e-11
5.14173e-11
6.721774e-14
2.895332e-11
4.916312e-11
5.009618e-11
5.049677e-11
5.09339e-11
5.143309e-11
1.104729e-13
2.886587e-11
4.921022e-11
5.012603e-11
5.051947e-11
5.095207e-11
5.144921e-11
7.530452e-14
2.958564e-11
4.927055e-11
5.016404e-11
5.054558e-11
5.097083e-11
5.146502e-11
5.205361e-11
5.279942e-11
5.380635e-11
5.478604e-11
5.656428e-11
6.140942e-11
9.499501e-10
5.204057e-11
5.278268e-11
5.378405e-11
5.475989e-11
5.653022e-11
6.004562e-11
4.926842e-10
5.202564e-11
5.276518e-11
5.376275e-11
5.509819e-11
5.650172e-11
5.999554e-11
4.906405e-10
5.200993e-11
5.274729e-11
5.373948e-11
5.470628e-11
5.646491e-11
5.994378e-11
4.88345e-10
5.199436e-11
5.272918e-11
5.371745e-11
5.467665e-11
5.64314e-11
5.989017e-11
4.777896e-10
5.197909e-11
5.271105e-11
5.369471e-11
5.464903e-11
5.639859e-11
5.983522e-11
4.607398e-10
5.196441e-11
5.269325e-11
5.367222e-11
5.462254e-11
5.638941e-11
5.977981e-11
4.418821e-10
5.195128e-11
5.267582e-11
5.365009e-11
5.459665e-11
5.638098e-11
5.972198e-11
4.168939e-10
5.194737e-11
5.265994e-11
5.362905e-11
5.457037e-11
5.635485e-11
5.966526e-11
3.924849e-10
5.194448e-11
5.265556e-11
5.360958e-11
5.454434e-11
5.632909e-11
5.96055e-11
3.636315e-10
5.194204e-11
5.265229e-11
5.360427e-11
5.451921e-11
5.630357e-11
5.954429e-11
3.336446e-10
5.19398e-11
5.264915e-11
5.360018e-11
5.451362e-11
5.627794e-11
5.947554e-11
2.991487e-10
5.193773e-11
5.264612e-11
5.359605e-11
5.45086e-11
5.627342e-11
5.940413e-11
2.670045e-10
5.193569e-11
5.264312e-11
5.359185e-11
5.450342e-11
5.626839e-11
5.938772e-11
2.381591e-10
5.193366e-11
5.264e-11
5.358751e-11
5.449806e-11
5.626299e-11
5.930679e-11
2.117081e-10
5.193155e-11
5.263678e-11
5.358304e-11
5.449247e-11
5.625722e-11
5.924288e-11
1.727407e-10
5.19294e-11
5.263344e-11
5.35784e-11
5.448645e-11
5.624867e-11
5.91894e-11
1.534502e-10
5.192715e-11
5.263005e-11
5.357345e-11
5.447744e-11
5.617047e-11
5.913471e-11
1.339203e-10
5.19248e-11
5.262663e-11
5.356837e-11
5.44708e-11
5.615957e-11
5.908594e-11
1.180881e-10
5.192227e-11
5.262301e-11
5.3563e-11
5.446391e-11
5.615068e-11
5.903551e-11
1.124933e-10
5.191963e-11
5.261918e-11
5.355741e-11
5.445665e-11
5.614134e-11
5.899399e-11
3.920764e-10
5.191674e-11
5.261511e-11
5.355163e-11
5.44489e-11
5.613153e-11
5.899466e-11
1.338428e-10
5.191372e-11
5.261073e-11
5.354483e-11
5.44407e-11
5.611941e-11
5.923764e-11
6.221876e-10
5.190972e-11
5.2606e-11
5.353923e-11
5.477082e-11
5.604925e-11
5.920629e-11
5.459272e-10
5.190557e-11
5.260099e-11
5.353058e-11
5.442621e-11
5.600908e-11
5.924177e-11
5.641438e-10
5.190163e-11
5.259563e-11
5.352308e-11
5.441277e-11
5.599452e-11
5.930061e-11
6.804924e-10
5.189647e-11
5.258937e-11
5.351469e-11
5.440197e-11
5.597887e-11
5.925084e-11
6.356871e-10
5.188093e-11
5.258226e-11
5.35037e-11
5.439042e-11
5.59579e-11
5.895551e-11
5.908962e-10
5.186815e-11
5.238659e-11
5.32448e-11
5.437629e-11
5.593839e-11
5.883263e-11
5.417245e-10
5.185829e-11
5.237606e-11
5.323453e-11
5.436418e-11
5.591963e-11
5.872289e-11
4.140126e-10
5.1839e-11
5.234804e-11
5.322384e-11
5.434974e-11
5.589947e-11
5.884779e-11
4.556273e-10
5.182496e-11
5.232998e-11
5.321258e-11
5.433386e-11
5.587734e-11
5.875977e-11
4.223156e-10
5.18145e-11
5.228121e-11
5.319937e-11
5.431699e-11
5.585368e-11
5.860769e-11
3.382703e-10
5.180548e-11
5.226703e-11
5.315873e-11
5.430044e-11
5.582904e-11
5.842592e-11
2.333002e-10
5.179196e-11
5.224773e-11
5.310696e-11
5.428385e-11
5.580137e-11
5.812722e-11
1.713148e-10
5.177265e-11
5.222443e-11
5.306273e-11
5.426393e-11
5.577575e-11
5.810887e-11
2.248478e-10
5.176309e-11
5.221216e-11
5.307135e-11
5.423058e-11
5.577699e-11
5.794235e-11
1.868455e-10
5.177907e-11
5.223473e-11
5.311425e-11
5.419983e-11
5.581888e-11
5.809157e-11
2.556082e-10
5.18125e-11
5.228991e-11
5.318859e-11
5.426918e-11
5.589117e-11
5.811289e-11
7.761063e-11
5.183365e-11
5.234554e-11
5.328385e-11
5.441522e-11
5.573503e-11
5.787747e-11
1.019037e-10
5.175394e-11
5.233831e-11
5.327694e-11
5.432557e-11
5.55248e-11
5.738423e-11
8.435521e-11
5.155022e-11
5.216594e-11
5.300955e-11
5.407778e-11
5.532433e-11
5.685491e-11
8.704853e-11
5.130821e-11
5.193869e-11
5.279533e-11
5.382036e-11
5.504193e-11
5.652744e-11
9.14379e-11
5.105437e-11
5.169994e-11
5.259112e-11
5.357739e-11
5.46892e-11
5.64282e-11
8.857911e-11
5.072521e-11
5.137222e-11
5.220604e-11
5.335491e-11
5.430657e-11
5.622762e-11
7.782284e-11
5.032888e-11
5.105399e-11
5.198781e-11
5.295572e-11
5.40825e-11
5.598498e-11
1.900128e-10
5.000545e-11
5.071799e-11
5.167871e-11
5.276792e-11
5.362135e-11
5.592399e-11
1.693841e-10
4.975033e-11
5.040782e-11
5.153917e-11
5.245735e-11
5.358844e-11
5.50612e-11
1.168585e-10
4.939872e-11
5.013005e-11
5.121824e-11
5.227212e-11
5.339353e-11
5.542709e-11
1.250905e-10
4.914888e-11
4.983377e-11
5.10256e-11
5.206219e-11
5.322526e-11
5.45592e-11
7.900595e-11
4.893128e-11
4.95612e-11
5.074828e-11
5.184968e-11
5.294212e-11
5.417975e-11
6.513694e-11
4.886105e-11
4.946505e-11
5.064029e-11
5.164515e-11
5.265615e-11
7.055018e-11
1.687465e-09
4.883216e-11
4.937307e-11
5.05482e-11
5.145779e-11
5.245841e-11
6.753634e-11
1.508476e-09
4.880556e-11
4.936659e-11
5.049798e-11
5.138494e-11
5.220422e-11
8.633332e-11
1.07573e-09
4.886691e-11
4.939907e-11
5.059407e-11
5.126865e-11
5.190636e-11
5.205967e-11
7.186921e-11
4.895896e-11
4.949648e-11
5.061338e-11
5.128629e-11
5.164565e-11
5.168963e-11
4.896355e-11
4.955114e-11
5.070581e-11
5.138732e-11
5.18115e-11
5.188276e-11
4.890197e-11
4.950083e-11
5.060981e-11
5.12921e-11
5.168436e-11
5.176071e-11
4.88463e-11
4.944726e-11
5.059084e-11
5.123675e-11
5.190471e-11
5.612575e-11
6.043232e-10
4.883297e-11
4.936458e-11
5.061895e-11
5.140914e-11
5.227582e-11
9.045426e-11
1.49384e-09
4.890353e-11
4.942048e-11
5.064962e-11
5.159766e-11
5.243766e-11
6.632326e-11
1.96036e-09
4.898559e-11
4.945277e-11
5.055418e-11
5.158513e-11
5.248786e-11
5.36344e-11
7.513714e-11
4.920267e-11
4.968017e-11
5.089309e-11
5.178306e-11
5.263536e-11
5.395947e-11
6.394091e-11
4.94674e-11
4.994198e-11
5.104741e-11
5.186387e-11
5.300908e-11
5.423863e-11
7.388235e-11
4.981473e-11
5.020981e-11
5.129949e-11
5.227709e-11
5.319543e-11
5.435431e-11
7.259836e-11
5.010038e-11
5.058062e-11
5.160418e-11
5.251186e-11
5.342167e-11
5.469925e-11
1.152492e-10
5.042345e-11
5.084833e-11
5.184532e-11
5.282629e-11
5.36635e-11
5.503108e-11
7.57364e-11
5.080962e-11
5.123582e-11
5.214983e-11
5.305961e-11
5.402291e-11
5.55996e-11
9.709318e-11
5.11283e-11
5.155842e-11
5.243085e-11
5.34151e-11
5.434058e-11
5.597923e-11
6.337548e-11
5.143218e-11
5.187475e-11
5.271363e-11
5.368611e-11
5.476388e-11
5.699177e-11
4.603226e-10
5.1645e-11
5.215179e-11
5.294667e-11
5.394535e-11
5.51218e-11
5.654493e-11
7.705042e-11
5.178857e-11
5.229968e-11
5.318246e-11
5.425741e-11
5.542832e-11
5.693149e-11
1.069459e-10
5.182218e-11
5.238125e-11
5.323381e-11
5.442207e-11
5.565312e-11
5.753301e-11
7.446989e-11
5.179542e-11
5.231588e-11
5.317296e-11
5.429478e-11
5.581085e-11
5.795561e-11
8.049999e-11
5.176982e-11
5.225385e-11
5.309409e-11
5.416625e-11
5.582545e-11
5.809671e-11
2.704541e-10
5.177088e-11
5.222526e-11
5.305641e-11
5.415414e-11
5.575826e-11
5.788395e-11
1.657496e-10
5.178544e-11
5.223187e-11
5.30567e-11
5.422037e-11
5.576859e-11
5.797612e-11
1.159815e-10
5.179883e-11
5.224907e-11
5.308691e-11
5.427534e-11
5.579187e-11
5.81553e-11
2.079777e-10
5.180806e-11
5.226829e-11
5.313112e-11
5.429214e-11
5.581586e-11
5.822444e-11
2.286168e-10
5.181544e-11
5.227214e-11
5.318967e-11
5.430901e-11
5.584081e-11
5.846695e-11
3.10803e-10
5.182542e-11
5.230736e-11
5.320661e-11
5.432633e-11
5.586554e-11
5.872044e-11
4.194686e-10
5.183938e-11
5.233838e-11
5.321876e-11
5.434249e-11
5.588861e-11
5.878166e-11
4.535395e-10
5.185863e-11
5.237161e-11
5.32295e-11
5.435733e-11
5.590953e-11
5.879934e-11
5.420191e-10
5.186817e-11
5.237645e-11
5.323977e-11
5.437088e-11
5.592877e-11
5.873099e-11
4.159051e-10
5.188085e-11
5.258212e-11
5.350363e-11
5.438717e-11
5.594731e-11
5.8853e-11
5.573658e-10
5.189623e-11
5.258911e-11
5.351435e-11
5.439774e-11
5.596865e-11
5.912722e-11
6.088237e-10
5.190137e-11
5.259531e-11
5.35229e-11
5.440872e-11
5.59865e-11
5.927168e-11
6.547453e-10
5.190528e-11
5.260067e-11
5.353063e-11
5.441893e-11
5.600165e-11
5.932555e-11
7.023108e-10
5.190945e-11
5.260574e-11
5.353793e-11
5.442855e-11
5.601749e-11
5.890757e-11
1.409259e-10
5.191345e-11
5.26104e-11
5.354469e-11
5.44377e-11
5.609436e-11
5.892671e-11
1.324628e-10
5.191647e-11
5.261477e-11
5.355108e-11
5.444624e-11
5.61261e-11
5.895754e-11
1.170834e-10
5.191935e-11
5.261892e-11
5.355709e-11
5.445414e-11
5.613617e-11
5.895741e-11
9.423032e-11
5.192207e-11
5.262278e-11
5.356274e-11
5.446166e-11
5.614585e-11
5.899996e-11
9.835203e-11
5.192466e-11
5.262642e-11
5.356815e-11
5.446871e-11
5.615487e-11
5.904795e-11
1.132961e-10
5.1927e-11
5.262986e-11
5.35732e-11
5.447541e-11
5.616349e-11
5.909975e-11
1.300947e-10
5.192926e-11
5.263326e-11
5.357814e-11
5.448355e-11
5.620452e-11
5.915219e-11
1.486909e-10
5.193141e-11
5.263659e-11
5.358279e-11
5.449082e-11
5.625393e-11
5.920663e-11
1.695507e-10
5.193348e-11
5.263974e-11
5.358722e-11
5.449662e-11
5.625978e-11
5.926108e-11
1.950035e-10
5.193544e-11
5.264278e-11
5.359147e-11
5.450224e-11
5.626536e-11
5.933724e-11
2.234658e-10
5.193737e-11
5.264568e-11
5.359559e-11
5.45076e-11
5.627056e-11
5.938073e-11
2.475924e-10
5.193927e-11
5.264855e-11
5.359956e-11
5.451282e-11
5.627555e-11
5.942631e-11
2.759839e-10
5.194125e-11
5.265148e-11
5.360348e-11
5.451792e-11
5.629044e-11
5.949466e-11
3.052681e-10
5.194336e-11
5.265447e-11
5.360859e-11
5.453324e-11
5.631573e-11
5.956201e-11
3.363126e-10
5.19458e-11
5.265849e-11
5.362779e-11
5.455917e-11
5.634132e-11
5.962409e-11
3.658701e-10
5.194914e-11
5.26739e-11
5.364846e-11
5.458537e-11
5.636707e-11
5.968231e-11
3.911053e-10
5.196155e-11
5.269084e-11
5.367024e-11
5.461194e-11
5.639193e-11
5.974117e-11
4.150863e-10
5.197548e-11
5.270818e-11
5.369243e-11
5.463727e-11
5.63826e-11
5.979953e-11
4.373929e-10
5.199009e-11
5.272599e-11
5.371494e-11
5.466437e-11
5.641426e-11
5.985564e-11
4.55048e-10
5.200536e-11
5.274418e-11
5.37377e-11
5.469153e-11
5.644717e-11
5.991055e-11
4.673965e-10
5.202131e-11
5.276257e-11
5.376055e-11
5.471881e-11
5.648028e-11
5.996406e-11
4.735209e-10
5.203726e-11
5.278076e-11
5.378329e-11
5.474579e-11
5.651351e-11
6.001525e-11
4.722435e-10
5.205289e-11
5.279903e-11
5.380599e-11
5.477256e-11
5.654683e-11
6.013679e-11
3.885008e-10
2.098502e-07
2.853707e-07
2.855411e-07
2.855325e-07
2.855323e-07
2.855323e-07
2.855323e-07
2.855323e-07
2.855323e-07
2.855323e-07
2.855323e-07
2.855323e-07
2.855323e-07
2.855323e-07
2.855323e-07
2.855323e-07
2.855323e-07
2.855323e-07
2.022168e-07
2.846507e-07
2.85524e-07
2.855321e-07
2.855322e-07
2.855322e-07
2.855322e-07
2.855322e-07
2.855322e-07
2.855322e-07
2.855322e-07
2.855322e-07
2.855322e-07
2.855322e-07
2.855322e-07
2.855322e-07
2.855322e-07
2.855322e-07
1.980554e-07
2.844142e-07
2.855268e-07
2.855321e-07
2.855321e-07
2.855321e-07
2.855321e-07
2.855321e-07
2.855321e-07
2.855321e-07
2.855321e-07
2.855321e-07
2.855321e-07
2.855321e-07
2.855321e-07
2.855321e-07
2.855321e-07
2.855321e-07
1.939648e-07
2.846045e-07
2.855304e-07
2.855321e-07
2.855321e-07
2.855321e-07
2.855321e-07
2.855321e-07
2.855321e-07
2.855321e-07
2.855321e-07
2.855321e-07
2.855321e-07
2.855321e-07
2.855321e-07
2.855321e-07
2.855321e-07
2.855321e-07
1.895704e-07
2.845821e-07
2.85531e-07
2.855321e-07
2.855321e-07
2.855321e-07
2.855321e-07
2.855321e-07
2.855321e-07
2.855321e-07
2.855321e-07
2.855321e-07
2.855321e-07
2.855321e-07
2.855321e-07
2.855321e-07
2.855321e-07
2.855321e-07
1.847914e-07
2.845244e-07
2.855309e-07
2.855321e-07
2.855321e-07
2.855321e-07
2.855321e-07
2.855321e-07
2.855321e-07
2.855321e-07
2.855321e-07
2.855321e-07
2.855321e-07
2.855321e-07
2.855321e-07
2.855321e-07
2.855321e-07
2.855321e-07
1.798509e-07
2.844732e-07
2.855309e-07
2.855321e-07
2.855321e-07
2.855321e-07
2.855321e-07
2.855321e-07
2.855321e-07
2.855321e-07
2.855321e-07
2.855321e-07
2.855321e-07
2.855321e-07
2.855321e-07
2.855321e-07
2.855321e-07
2.855321e-07
1.745705e-07
2.844463e-07
2.855308e-07
2.855321e-07
2.855321e-07
2.855321e-07
2.855321e-07
2.855321e-07
2.855321e-07
2.855321e-07
2.855321e-07
2.855321e-07
2.855321e-07
2.855321e-07
2.855321e-07
2.855321e-07
2.855321e-07
2.855321e-07
1.696171e-07
2.84409e-07
2.855308e-07
2.855321e-07
2.855321e-07
2.855321e-07
2.855321e-07
2.855321e-07
2.855321e-07
2.855321e-07
2.855321e-07
2.855321e-07
2.855321e-07
2.855321e-07
2.855321e-07
2.855321e-07
2.855321e-07
2.855321e-07
1.6438e-07
2.843553e-07
2.855307e-07
2.855321e-07
2.855321e-07
2.855321e-07
2.855321e-07
2.855321e-07
2.855321e-07
2.855321e-07
2.855321e-07
2.855321e-07
2.855321e-07
2.855321e-07
2.855321e-07
2.855321e-07
2.855321e-07
2.855321e-07
1.589368e-07
2.843184e-07
2.855307e-07
2.855321e-07
2.855321e-07
2.855321e-07
2.855321e-07
2.855321e-07
2.855321e-07
2.855321e-07
2.855321e-07
2.855321e-07
2.855321e-07
2.855321e-07
2.855321e-07
2.855321e-07
2.855321e-07
2.855321e-07
1.537731e-07
2.842996e-07
2.855306e-07
2.855321e-07
2.855321e-07
2.855321e-07
2.855321e-07
2.855321e-07
2.855321e-07
2.855321e-07
2.855321e-07
2.855321e-07
2.855321e-07
2.855321e-07
2.855321e-07
2.855321e-07
2.855321e-07
2.855321e-07
1.489671e-07
2.841411e-07
2.855293e-07
2.855321e-07
2.855321e-07
2.855321e-07
2.855321e-07
2.855321e-07
2.855321e-07
2.855321e-07
2.855321e-07
2.855321e-07
2.855321e-07
2.855321e-07
2.855321e-07
2.855321e-07
2.855321e-07
2.855321e-07
1.400613e-07
2.836842e-07
2.855232e-07
2.855318e-07
2.855321e-07
2.855321e-07
2.855321e-07
2.855321e-07
2.855321e-07
2.855321e-07
2.855321e-07
2.855321e-07
2.855321e-07
2.855321e-07
2.855321e-07
2.855321e-07
2.855321e-07
2.855321e-07
1.198049e-07
2.836556e-07
2.855154e-07
2.8553e-07
2.85532e-07
2.855321e-07
2.855321e-07
2.855321e-07
2.855321e-07
2.855321e-07
2.855321e-07
2.855321e-07
2.855321e-07
2.855321e-07
2.855321e-07
2.855321e-07
2.855321e-07
2.855321e-07
1.12698e-07
2.835064e-07
2.855292e-07
2.855271e-07
2.855315e-07
2.855321e-07
2.855321e-07
2.855321e-07
2.855321e-07
2.855321e-07
2.855321e-07
2.855321e-07
2.855321e-07
2.855321e-07
2.855321e-07
2.855321e-07
2.855321e-07
2.855321e-07
1.05578e-07
2.832062e-07
2.855266e-07
2.855315e-07
2.855306e-07
2.85532e-07
2.855321e-07
2.855321e-07
2.855321e-07
2.855321e-07
2.855321e-07
2.855321e-07
2.855321e-07
2.855321e-07
2.855321e-07
2.855321e-07
2.855321e-07
2.855321e-07
9.863038e-08
2.830899e-07
2.855338e-07
2.855316e-07
2.855319e-07
2.855319e-07
2.855321e-07
2.855321e-07
2.855321e-07
2.855321e-07
2.855321e-07
2.855321e-07
2.855321e-07
2.855321e-07
2.855321e-07
2.855321e-07
2.855321e-07
2.855321e-07
9.196139e-08
2.830273e-07
2.855331e-07
2.855338e-07
2.855321e-07
2.85532e-07
2.855321e-07
2.855321e-07
2.855321e-07
2.855321e-07
2.855321e-07
2.855321e-07
2.855321e-07
2.855321e-07
2.855321e-07
2.855321e-07
2.855321e-07
2.855321e-07
8.587042e-08
2.829348e-07
2.855298e-07
2.855335e-07
2.855326e-07
2.855322e-07
2.855321e-07
2.855321e-07
2.855321e-07
2.855321e-07
2.855321e-07
2.855321e-07
2.855321e-07
2.855321e-07
2.855321e-07
2.855321e-07
2.855321e-07
2.855321e-07
8.079848e-08
2.828273e-07
2.855289e-07
2.855324e-07
2.855324e-07
2.855322e-07
2.855321e-07
2.855321e-07
2.855321e-07
2.855321e-07
2.855321e-07
2.855321e-07
2.855321e-07
2.855321e-07
2.855321e-07
2.855321e-07
2.855321e-07
2.855321e-07
7.522664e-08
2.82712e-07
2.855289e-07
2.855322e-07
2.855322e-07
2.855322e-07
2.855321e-07
2.855321e-07
2.855321e-07
2.855321e-07
2.855321e-07
2.855321e-07
2.855321e-07
2.855321e-07
2.855321e-07
2.855321e-07
2.855321e-07
2.855321e-07
7.139302e-08
2.825534e-07
2.855288e-07
2.855321e-07
2.855321e-07
2.855321e-07
2.855321e-07
2.855321e-07
2.855321e-07
2.855321e-07
2.855321e-07
2.855321e-07
2.855321e-07
2.855321e-07
2.855321e-07
2.855321e-07
2.855321e-07
2.855321e-07
6.665582e-08
2.824205e-07
2.855288e-07
2.855321e-07
2.855321e-07
2.855321e-07
2.855321e-07
2.855321e-07
2.855321e-07
2.855321e-07
2.855321e-07
2.855321e-07
2.855321e-07
2.855321e-07
2.855321e-07
2.855321e-07
2.855321e-07
2.855321e-07
6.214973e-08
2.823079e-07
2.855289e-07
2.855321e-07
2.85532e-07
2.855321e-07
2.855321e-07
2.855321e-07
2.855321e-07
2.855321e-07
2.855321e-07
2.855321e-07
2.855321e-07
2.855321e-07
2.85532e-07
2.855321e-07
2.855321e-07
2.855321e-07
5.79482e-08
2.821855e-07
2.855289e-07
2.85532e-07
2.855318e-07
2.855321e-07
2.855321e-07
2.855321e-07
2.855321e-07
2.855321e-07
2.855321e-07
2.855321e-07
2.855321e-07
2.855321e-07
2.855321e-07
2.855321e-07
2.855321e-07
2.855321e-07
5.349879e-08
2.820663e-07
2.855289e-07
2.855305e-07
2.855304e-07
2.855321e-07
2.855321e-07
2.855321e-07
2.855321e-07
2.855321e-07
2.855321e-07
2.855321e-07
2.855321e-07
2.855321e-07
2.855321e-07
2.855321e-07
2.855321e-07
2.855321e-07
4.909841e-08
2.820075e-07
2.855289e-07
2.85514e-07
2.855165e-07
2.855322e-07
2.855321e-07
2.855318e-07
2.85532e-07
2.855321e-07
2.855321e-07
2.855321e-07
2.855321e-07
2.855321e-07
2.855321e-07
2.855321e-07
2.855321e-07
2.855321e-07
4.489677e-08
2.820435e-07
2.855278e-07
2.85408e-07
2.854329e-07
2.855329e-07
2.85532e-07
2.855296e-07
2.855309e-07
2.855322e-07
2.855321e-07
2.855321e-07
2.855321e-07
2.855321e-07
2.855322e-07
2.855321e-07
2.855321e-07
2.855321e-07
4.04747e-08
2.822975e-07
2.855244e-07
2.851791e-07
2.852897e-07
2.855342e-07
2.855317e-07
2.855211e-07
2.855262e-07
2.855324e-07
2.855321e-07
2.855321e-07
2.855321e-07
2.855321e-07
2.855321e-07
2.855321e-07
2.855321e-07
2.855321e-07
3.692942e-08
2.82839e-07
2.855109e-07
2.853563e-07
2.854894e-07
2.855275e-07
2.855314e-07
2.855225e-07
2.855235e-07
2.855323e-07
2.855321e-07
2.855321e-07
2.855321e-07
2.85532e-07
2.855321e-07
2.855321e-07
2.855321e-07
2.855321e-07
3.307714e-08
2.834013e-07
2.854265e-07
2.85038e-07
2.850908e-07
2.854908e-07
2.855306e-07
2.855359e-07
2.855375e-07
2.855317e-07
2.855321e-07
2.855321e-07
2.855319e-07
2.855319e-07
2.855321e-07
2.855321e-07
2.855319e-07
2.85532e-07
2.927565e-08
2.815311e-07
2.853232e-07
2.846092e-07
2.847229e-07
2.85314e-07
2.85527e-07
2.855265e-07
2.855261e-07
2.855305e-07
2.855321e-07
2.855321e-07
2.85532e-07
2.855323e-07
2.855321e-07
2.855321e-07
2.855317e-07
2.85532e-07
2.219653e-08
2.791738e-07
2.853181e-07
2.85151e-07
2.849161e-07
2.851936e-07
2.855176e-07
2.855197e-07
2.855201e-07
2.855298e-07
2.855326e-07
2.855323e-07
2.855317e-07
2.855322e-07
2.855321e-07
2.855319e-07
2.855314e-07
2.855322e-07
1.719316e-08
2.82873e-07
2.852802e-07
2.85648e-07
2.855358e-07
2.857233e-07
2.855366e-07
2.855397e-07
2.85537e-07
2.855467e-07
2.855408e-07
2.855364e-07
2.855328e-07
2.855328e-07
2.855322e-07
2.855316e-07
2.855312e-07
2.855321e-07
1.093293e-08
2.829561e-07
2.846483e-07
2.849657e-07
2.855325e-07
2.855862e-07
2.857224e-07
2.856979e-07
2.856775e-07
2.856435e-07
2.856088e-07
2.855763e-07
2.8555e-07
2.855409e-07
2.855344e-07
2.855317e-07
2.855318e-07
2.855322e-07
3.236771e-09
2.811611e-07
2.836569e-07
2.849592e-07
2.861374e-07
2.862044e-07
2.862342e-07
2.861852e-07
2.861158e-07
2.860424e-07
2.859227e-07
2.857885e-07
2.856763e-07
2.856083e-07
2.855589e-07
2.855396e-07
2.855334e-07
2.855323e-07
1.40425e-08
2.880995e-07
2.849199e-07
2.862085e-07
2.866218e-07
2.866245e-07
2.867105e-07
2.867521e-07
2.866941e-07
2.866213e-07
2.865066e-07
2.863184e-07
2.861196e-07
2.858927e-07
2.856987e-07
2.856027e-07
2.855534e-07
2.85536e-07
1.382625e-08
2.477748e-07
2.827303e-07
2.865162e-07