/*--------------------------------*- C++ -*----------------------------------*\
| =========                 |                                                 |
| \\      /  F ield         | OpenFOAM: The Open Source CFD Toolbox           |
|  \\    /   O peration     | Version:  2206                                  |
|   \\  /    A nd           | Website:  www.openfoam.com                      |
|    \\/     M anipulation  |                                                 |
\*---------------------------------------------------------------------------*/
FoamFile
{
    version     2.0;
    format      ascii;
    arch        "LSB;label=32;scalar=64";
    class       volScalarField;
    location    "2.4";
    object      k.b_0;
}
// * * * * * * * * * * * * * * * * * * * * * * * * * * * * * * * * * * * * * //

dimensions      [0 2 -2 0 0 0 0];

internalField   nonuniform List<scalar> 
13078
(
4.152898e-14
3.376295e-11
4.986086e-11
5.040495e-11
5.074888e-11
5.117002e-11
5.166395e-11
4.649732e-14
2.894088e-11
4.945436e-11
5.035239e-11
5.073198e-11
5.11577e-11
5.165225e-11
8.877056e-14
2.889715e-11
4.93735e-11
5.031348e-11
5.070757e-11
5.114021e-11
5.16373e-11
5.175643e-14
2.909706e-11
4.935484e-11
5.028347e-11
5.068434e-11
5.112197e-11
5.162124e-11
4.152579e-14
2.917315e-11
4.934329e-11
5.026758e-11
5.066525e-11
5.110474e-11
5.160545e-11
3.930755e-14
2.921656e-11
4.933945e-11
5.025775e-11
5.065622e-11
5.109021e-11
5.159046e-11
3.928512e-14
2.923218e-11
4.933192e-11
5.025102e-11
5.065005e-11
5.10843e-11
5.157741e-11
4.079384e-14
2.923068e-11
4.932372e-11
5.024732e-11
5.064645e-11
5.10803e-11
5.157301e-11
4.380507e-14
2.92256e-11
4.932564e-11
5.024641e-11
5.064448e-11
5.107759e-11
5.156986e-11
4.803674e-14
2.92111e-11
4.93269e-11
5.024623e-11
5.064337e-11
5.107574e-11
5.15675e-11
5.341279e-14
2.919016e-11
4.932753e-11
5.024638e-11
5.064271e-11
5.107439e-11
5.156556e-11
6.015456e-14
2.916426e-11
4.93276e-11
5.024663e-11
5.064231e-11
5.107333e-11
5.156395e-11
6.863929e-14
2.913456e-11
4.932723e-11
5.024683e-11
5.064203e-11
5.107246e-11
5.156251e-11
7.944235e-14
2.91014e-11
4.932645e-11
5.024688e-11
5.064158e-11
5.107162e-11
5.156112e-11
9.3112e-14
2.906537e-11
4.932474e-11
5.024471e-11
5.063819e-11
5.107047e-11
5.155976e-11
1.103363e-13
2.902663e-11
4.932251e-11
5.024187e-11
5.063555e-11
5.106943e-11
5.155835e-11
1.320746e-13
2.898545e-11
4.932083e-11
5.024149e-11
5.063487e-11
5.106848e-11
5.15569e-11
1.595659e-13
2.894187e-11
4.931885e-11
5.024119e-11
5.063422e-11
5.106748e-11
5.155537e-11
1.9438e-13
2.889566e-11
4.931662e-11
5.024085e-11
5.063339e-11
5.106613e-11
5.155378e-11
2.385182e-13
2.884708e-11
4.931412e-11
5.02402e-11
5.062944e-11
5.106019e-11
5.155161e-11
2.945032e-13
2.879581e-11
4.931142e-11
5.023945e-11
5.062468e-11
5.105545e-11
5.15494e-11
3.65544e-13
2.874191e-11
4.930858e-11
5.023896e-11
5.062327e-11
5.105368e-11
5.154741e-11
4.556758e-13
2.86851e-11
4.930544e-11
5.023835e-11
5.062212e-11
5.105164e-11
5.154479e-11
5.699811e-13
2.862525e-11
4.930208e-11
5.023771e-11
5.062053e-11
5.104521e-11
5.153524e-11
7.148105e-13
2.856206e-11
4.929848e-11
5.023701e-11
5.061879e-11
5.103764e-11
5.152756e-11
8.980634e-13
2.849521e-11
4.929447e-11
5.023625e-11
5.061726e-11
5.103454e-11
5.152388e-11
1.129474e-12
2.842552e-11
4.929014e-11
5.023546e-11
5.061562e-11
5.103176e-11
5.151955e-11
1.420403e-12
2.834415e-11
4.928494e-11
5.023463e-11
5.061379e-11
5.102851e-11
5.150891e-11
1.784654e-12
2.827162e-11
4.928017e-11
5.023376e-11
5.061179e-11
5.102485e-11
5.149702e-11
2.230157e-12
2.806695e-11
4.926838e-11
5.023268e-11
5.060973e-11
5.102138e-11
5.149068e-11
2.778504e-12
2.784451e-11
4.926491e-11
5.02319e-11
5.060755e-11
5.101774e-11
5.14852e-11
3.475136e-12
2.748129e-11
4.925656e-11
5.023085e-11
5.060548e-11
5.101384e-11
5.147906e-11
4.333418e-12
2.702535e-11
4.921046e-11
5.022311e-11
5.06026e-11
5.100931e-11
5.147273e-11
5.381384e-12
2.686796e-11
4.917536e-11
5.021568e-11
5.059802e-11
5.100307e-11
5.146435e-11
6.647144e-12
2.670921e-11
4.915622e-11
5.020311e-11
5.057392e-11
5.098948e-11
5.145036e-11
8.156407e-12
2.654069e-11
4.912601e-11
5.018318e-11
5.054129e-11
5.094823e-11
5.142455e-11
9.927083e-12
2.636353e-11
4.908035e-11
5.014511e-11
5.050279e-11
5.090461e-11
5.139631e-11
1.195886e-11
2.617186e-11
4.901738e-11
5.009832e-11
5.046049e-11
5.086717e-11
5.136517e-11
1.420579e-11
2.596328e-11
4.894489e-11
5.005097e-11
5.042626e-11
5.084439e-11
5.135212e-11
1.651811e-11
2.557568e-11
4.886593e-11
5.000585e-11
5.038557e-11
5.08123e-11
5.132605e-11
1.879938e-11
2.485982e-11
4.87789e-11
4.994241e-11
5.032026e-11
5.074951e-11
5.127599e-11
2.116587e-11
2.416595e-11
4.86211e-11
4.982243e-11
5.020847e-11
5.062998e-11
5.111721e-11
2.332883e-11
2.385443e-11
4.845129e-11
4.96692e-11
5.00147e-11
5.043482e-11
5.088323e-11
2.504758e-11
2.358388e-11
4.829843e-11
4.952139e-11
4.980884e-11
5.015055e-11
5.064822e-11
2.609632e-11
2.324011e-11
4.817074e-11
4.934907e-11
4.962166e-11
4.991903e-11
5.029697e-11
2.626214e-11
2.270457e-11
4.803452e-11
4.913789e-11
4.940136e-11
4.967598e-11
4.998114e-11
2.575376e-11
2.209471e-11
4.784115e-11
4.895899e-11
4.91319e-11
4.937655e-11
4.967861e-11
2.424593e-11
2.173613e-11
4.764478e-11
4.878151e-11
4.888878e-11
4.906974e-11
4.932642e-11
2.175089e-11
2.135737e-11
4.74428e-11
4.856217e-11
4.868477e-11
4.885554e-11
4.907685e-11
1.842891e-11
2.099484e-11
4.726052e-11
4.836298e-11
4.845945e-11
4.861227e-11
4.886565e-11
1.44739e-11
2.031066e-11
4.708921e-11
4.82095e-11
4.829826e-11
4.844066e-11
4.865056e-11
1.011441e-11
1.92853e-11
4.686691e-11
4.804116e-11
4.815054e-11
4.832153e-11
4.853529e-11
6.215977e-12
1.88388e-11
4.668031e-11
4.797731e-11
4.810701e-11
4.830648e-11
4.84871e-11
3.106224e-12
1.859393e-11
4.658197e-11
4.790844e-11
4.806449e-11
4.826924e-11
4.847024e-11
1.067382e-12
1.8421e-11
4.654187e-11
4.789079e-11
4.807341e-11
4.828945e-11
4.853579e-11
2.478136e-13
1.832599e-11
4.653679e-11
4.790547e-11
4.811055e-11
4.834768e-11
4.861631e-11
7.850374e-13
1.840451e-11
4.655713e-11
4.790611e-11
4.810013e-11
4.833442e-11
4.861339e-11
2.637471e-12
1.86128e-11
4.660271e-11
4.790541e-11
4.807938e-11
4.829418e-11
4.854256e-11
5.526104e-12
1.888562e-11
4.668247e-11
4.794283e-11
4.809452e-11
4.829373e-11
4.848898e-11
9.248718e-12
1.925077e-11
4.680881e-11
4.801676e-11
4.813988e-11
4.832719e-11
4.848895e-11
1.34147e-11
1.980466e-11
4.701141e-11
4.808412e-11
4.818904e-11
4.836155e-11
4.857867e-11
1.773595e-11
2.089252e-11
4.725596e-11
4.827619e-11
4.835702e-11
4.849246e-11
4.86936e-11
2.126597e-11
2.163749e-11
4.743382e-11
4.842633e-11
4.851618e-11
4.865936e-11
4.890724e-11
2.393591e-11
2.203852e-11
4.761352e-11
4.861622e-11
4.873398e-11
4.890152e-11
4.913216e-11
2.566289e-11
2.239297e-11
4.780589e-11
4.883439e-11
4.895076e-11
4.91547e-11
4.94054e-11
2.634559e-11
2.263359e-11
4.799827e-11
4.902862e-11
4.922084e-11
4.948455e-11
4.976749e-11
2.610437e-11
2.310882e-11
4.819544e-11
4.923269e-11
4.951153e-11
4.980591e-11
5.008471e-11
2.532413e-11
2.357824e-11
4.833057e-11
4.946788e-11
4.974219e-11
5.00628e-11
5.041831e-11
2.383887e-11
2.388509e-11
4.844665e-11
4.964177e-11
4.994791e-11
5.028262e-11
5.076397e-11
2.182832e-11
2.413049e-11
4.85841e-11
4.977612e-11
5.013618e-11
5.054553e-11
5.098451e-11
1.952497e-11
2.441979e-11
4.873437e-11
4.990658e-11
5.028947e-11
5.071394e-11
5.119352e-11
1.712589e-11
2.498282e-11
4.886431e-11
5.000661e-11
5.037879e-11
5.080712e-11
5.132577e-11
1.482859e-11
2.55413e-11
4.894449e-11
5.005643e-11
5.04295e-11
5.085127e-11
5.135215e-11
1.260165e-11
2.586192e-11
4.901223e-11
5.010021e-11
5.046764e-11
5.087326e-11
5.136245e-11
1.052415e-11
2.604948e-11
4.907464e-11
5.014253e-11
5.050255e-11
5.089658e-11
5.138056e-11
8.68598e-12
2.630926e-11
4.912562e-11
5.017929e-11
5.053757e-11
5.09364e-11
5.14204e-11
7.106067e-12
2.653306e-11
4.915426e-11
5.020098e-11
5.056364e-11
5.097822e-11
5.144477e-11
5.78024e-12
2.67254e-11
4.917229e-11
5.021014e-11
5.0584e-11
5.099927e-11
5.145938e-11
4.672974e-12
2.689993e-11
4.918678e-11
5.021812e-11
5.060058e-11
5.100624e-11
5.14677e-11
3.757279e-12
2.704365e-11
4.921801e-11
5.022411e-11
5.060341e-11
5.10104e-11
5.147388e-11
3.00959e-12
2.749112e-11
4.926136e-11
5.023118e-11
5.060577e-11
5.101425e-11
5.147965e-11
2.404343e-12
2.784634e-11
4.926786e-11
5.023196e-11
5.060764e-11
5.101795e-11
5.148554e-11
1.926617e-12
2.806268e-11
4.926989e-11
5.023258e-11
5.060965e-11
5.102145e-11
5.149085e-11
1.540619e-12
2.826375e-11
4.928073e-11
5.023354e-11
5.061164e-11
5.102477e-11
5.149694e-11
1.226593e-12
2.833391e-11
4.928483e-11
5.02343e-11
5.061355e-11
5.102831e-11
5.150881e-11
9.762956e-13
2.841415e-11
4.92896e-11
5.023513e-11
5.061531e-11
5.103149e-11
5.151937e-11
7.774968e-13
2.848346e-11
4.929366e-11
5.023593e-11
5.061693e-11
5.103424e-11
5.152363e-11
6.202424e-13
2.855053e-11
4.929756e-11
5.023669e-11
5.061848e-11
5.103734e-11
5.152729e-11
4.965929e-13
2.861427e-11
4.930116e-11
5.023736e-11
5.062022e-11
5.104497e-11
5.1535e-11
3.991786e-13
2.867488e-11
4.930453e-11
5.023806e-11
5.062182e-11
5.105135e-11
5.154453e-11
3.226311e-13
2.873259e-11
4.930771e-11
5.02387e-11
5.0623e-11
5.105343e-11
5.154712e-11
2.62297e-13
2.878745e-11
4.931063e-11
5.023926e-11
5.06245e-11
5.105524e-11
5.154916e-11
2.146752e-13
2.883974e-11
4.931346e-11
5.024008e-11
5.062935e-11
5.106007e-11
5.155146e-11
1.771581e-13
2.888937e-11
4.93161e-11
5.02408e-11
5.063332e-11
5.106606e-11
5.155369e-11
1.474537e-13
2.893668e-11
4.931852e-11
5.024118e-11
5.063418e-11
5.106743e-11
5.155527e-11
1.238826e-13
2.898141e-11
4.932066e-11
5.024155e-11
5.063487e-11
5.106841e-11
5.155677e-11
1.051464e-13
2.902382e-11
4.932254e-11
5.0242e-11
5.063558e-11
5.106937e-11
5.155824e-11
9.022686e-14
2.906393e-11
4.932501e-11
5.024495e-11
5.063829e-11
5.107045e-11
5.155967e-11
7.838638e-14
2.91015e-11
4.932702e-11
5.024719e-11
5.064171e-11
5.107161e-11
5.156098e-11
6.916696e-14
2.913651e-11
4.932811e-11
5.024721e-11
5.064216e-11
5.10724e-11
5.156228e-11
6.205555e-14
2.916846e-11
4.932885e-11
5.024706e-11
5.06424e-11
5.107314e-11
5.156355e-11
5.674767e-14
2.919729e-11
4.932921e-11
5.024684e-11
5.064268e-11
5.107398e-11
5.15649e-11
5.293808e-14
2.922227e-11
4.93291e-11
5.024661e-11
5.064307e-11
5.107497e-11
5.156647e-11
5.009257e-14
2.924235e-11
4.932838e-11
5.024646e-11
5.064366e-11
5.107624e-11
5.15683e-11
4.810952e-14
2.925529e-11
4.932681e-11
5.024661e-11
5.06447e-11
5.107808e-11
5.15707e-11
4.699669e-14
2.926789e-11
4.933469e-11
5.024879e-11
5.064677e-11
5.108078e-11
5.157413e-11
4.699369e-14
2.926744e-11
4.934063e-11
5.025269e-11
5.06505e-11
5.108495e-11
5.158599e-11
4.871007e-14
2.924436e-11
4.934004e-11
5.025766e-11
5.065621e-11
5.109736e-11
5.159974e-11
5.322121e-14
2.920079e-11
4.934347e-11
5.026679e-11
5.067116e-11
5.111241e-11
5.161457e-11
6.729805e-14
2.910641e-11
4.935413e-11
5.028852e-11
5.069057e-11
5.112934e-11
5.163041e-11
1.106568e-13
2.901909e-11
4.940131e-11
5.031844e-11
5.071332e-11
5.114756e-11
5.164657e-11
7.556175e-14
2.974207e-11
4.946174e-11
5.035654e-11
5.07395e-11
5.116637e-11
5.166244e-11
5.225325e-11
5.300187e-11
5.401261e-11
5.499598e-11
5.67809e-11
6.163139e-11
9.525838e-10
5.224016e-11
5.298507e-11
5.399023e-11
5.496974e-11
5.674672e-11
6.027059e-11
4.930599e-10
5.222518e-11
5.296752e-11
5.396885e-11
5.530931e-11
5.671811e-11
6.022034e-11
4.910509e-10
5.220942e-11
5.294956e-11
5.394549e-11
5.491593e-11
5.668116e-11
6.01684e-11
4.887597e-10
5.21938e-11
5.293138e-11
5.392338e-11
5.488619e-11
5.664753e-11
6.011465e-11
4.782375e-10
5.217848e-11
5.291319e-11
5.390056e-11
5.485847e-11
5.66146e-11
6.005959e-11
4.612364e-10
5.216376e-11
5.289533e-11
5.387799e-11
5.483188e-11
5.660538e-11
6.000408e-11
4.424239e-10
5.215058e-11
5.287784e-11
5.385578e-11
5.48059e-11
5.659692e-11
5.994619e-11
4.174794e-10
5.214666e-11
5.28619e-11
5.383466e-11
5.477953e-11
5.657069e-11
5.988943e-11
3.930959e-10
5.214376e-11
5.285751e-11
5.381512e-11
5.475339e-11
5.654484e-11
5.982965e-11
3.642687e-10
5.214131e-11
5.285423e-11
5.380979e-11
5.472817e-11
5.651922e-11
5.976844e-11
3.343093e-10
5.213906e-11
5.285107e-11
5.380568e-11
5.472256e-11
5.64935e-11
5.969972e-11
2.998225e-10
5.213698e-11
5.284804e-11
5.380154e-11
5.471752e-11
5.648896e-11
5.962833e-11
2.676841e-10
5.213493e-11
5.284502e-11
5.379732e-11
5.471232e-11
5.64839e-11
5.9612e-11
2.388587e-10
5.21329e-11
5.284189e-11
5.379297e-11
5.470693e-11
5.647848e-11
5.953126e-11
2.121875e-10
5.213078e-11
5.283866e-11
5.378848e-11
5.470132e-11
5.647269e-11
5.946755e-11
1.7323e-10
5.212862e-11
5.28353e-11
5.378382e-11
5.469528e-11
5.64641e-11
5.941414e-11
1.53915e-10
5.212636e-11
5.283189e-11
5.377885e-11
5.468623e-11
5.638561e-11
5.935952e-11
1.343583e-10
5.2124e-11
5.282847e-11
5.377375e-11
5.467957e-11
5.637466e-11
5.93108e-11
1.18505e-10
5.212146e-11
5.282483e-11
5.376835e-11
5.467265e-11
5.636573e-11
5.926037e-11
1.126292e-10
5.21188e-11
5.282098e-11
5.376273e-11
5.466536e-11
5.635635e-11
5.92183e-11
3.874139e-10
5.21159e-11
5.281689e-11
5.375694e-11
5.465757e-11
5.63465e-11
5.921894e-11
1.339153e-10
5.211286e-11
5.281249e-11
5.375011e-11
5.464934e-11
5.633433e-11
5.945893e-11
6.220999e-10
5.210884e-11
5.280774e-11
5.374448e-11
5.49807e-11
5.62639e-11
5.942776e-11
5.461634e-10
5.210468e-11
5.280271e-11
5.373579e-11
5.463478e-11
5.622357e-11
5.946256e-11
5.642714e-10
5.210072e-11
5.279733e-11
5.372826e-11
5.462129e-11
5.620894e-11
5.952034e-11
6.804328e-10
5.209553e-11
5.279104e-11
5.371983e-11
5.461045e-11
5.619323e-11
5.947063e-11
6.356195e-10
5.207994e-11
5.278389e-11
5.370881e-11
5.459884e-11
5.617217e-11
5.917562e-11
5.908177e-10
5.20671e-11
5.25875e-11
5.344891e-11
5.458465e-11
5.615257e-11
5.905286e-11
5.416207e-10
5.205721e-11
5.257693e-11
5.343861e-11
5.457249e-11
5.613372e-11
5.894374e-11
4.138723e-10
5.203784e-11
5.254881e-11
5.342788e-11
5.455799e-11
5.611348e-11
5.906742e-11
4.561704e-10
5.202372e-11
5.253065e-11
5.341657e-11
5.454204e-11
5.609125e-11
5.897933e-11
4.228525e-10
5.201322e-11
5.248173e-11
5.340328e-11
5.452509e-11
5.606747e-11
5.882751e-11
3.386953e-10
5.200415e-11
5.246748e-11
5.336247e-11
5.450844e-11
5.60427e-11
5.864619e-11
2.334773e-10
5.199057e-11
5.244809e-11
5.331048e-11
5.449173e-11
5.601487e-11
5.834826e-11
1.710228e-10
5.197119e-11
5.242468e-11
5.326601e-11
5.447161e-11
5.598906e-11
5.832846e-11
2.243917e-10
5.196159e-11
5.241229e-11
5.327447e-11
5.443781e-11
5.599003e-11
5.816226e-11
1.864819e-10
5.197755e-11
5.243478e-11
5.331725e-11
5.440665e-11
5.603162e-11
5.83103e-11
2.546645e-10
5.2011e-11
5.248994e-11
5.339158e-11
5.447594e-11
5.610352e-11
5.833374e-11
7.76683e-11
5.20322e-11
5.254564e-11
5.348708e-11
5.462234e-11
5.594673e-11
5.80973e-11
1.018551e-10
5.19523e-11
5.253828e-11
5.348027e-11
5.453207e-11
5.573556e-11
5.760163e-11
8.453572e-11
5.174792e-11
5.236534e-11
5.321151e-11
5.42825e-11
5.553359e-11
5.706994e-11
8.724383e-11
5.150485e-11
5.213739e-11
5.299584e-11
5.402314e-11
5.524925e-11
5.674106e-11
9.174674e-11
5.124996e-11
5.189719e-11
5.279047e-11
5.377834e-11
5.489455e-11
5.664109e-11
8.896428e-11
5.091885e-11
5.156831e-11
5.240335e-11
5.355529e-11
5.45094e-11
5.643981e-11
7.814251e-11
5.052035e-11
5.124826e-11
5.218468e-11
5.315318e-11
5.428489e-11
5.619643e-11
1.910421e-10
5.019484e-11
5.09104e-11
5.187285e-11
5.296513e-11
5.382079e-11
5.613664e-11
1.703598e-10
4.993777e-11
5.059767e-11
5.173285e-11
5.265226e-11
5.378803e-11
5.527011e-11
1.177294e-10
4.958321e-11
5.031832e-11
5.140913e-11
5.246519e-11
5.35911e-11
5.563803e-11
1.258318e-10
4.933151e-11
5.001881e-11
5.12142e-11
5.22534e-11
5.342109e-11
5.476465e-11
7.945541e-11
4.911174e-11
4.97447e-11
5.093429e-11
5.20387e-11
5.313715e-11
5.438088e-11
6.533858e-11
4.904e-11
4.964653e-11
5.082464e-11
5.183308e-11
5.284984e-11
7.093911e-11
1.697382e-09
4.901005e-11
4.955276e-11
5.073124e-11
5.164474e-11
5.265174e-11
6.793985e-11
1.520936e-09
4.898218e-11
4.954545e-11
5.067934e-11
5.157074e-11
5.23962e-11
8.683882e-11
1.082849e-09
4.904265e-11
4.957649e-11
5.07744e-11
5.145285e-11
5.209505e-11
5.225155e-11
7.230904e-11
4.913446e-11
4.967326e-11
5.079329e-11
5.146958e-11
5.183175e-11
5.187855e-11
4.913857e-11
4.972739e-11
5.088531e-11
5.157047e-11
5.199776e-11
5.20715e-11
4.907676e-11
4.967686e-11
5.078897e-11
5.147551e-11
5.187002e-11
5.194906e-11
4.902103e-11
4.962341e-11
5.077081e-11
5.141986e-11
5.209211e-11
5.637248e-11
6.086304e-10
4.900798e-11
4.954058e-11
5.07983e-11
5.15926e-11
5.246638e-11
9.115741e-11
1.508129e-09
4.907865e-11
4.959642e-11
5.082909e-11
5.178103e-11
5.262749e-11
6.678167e-11
1.979104e-09
4.916127e-11
4.962905e-11
5.073338e-11
5.176847e-11
5.267736e-11
5.383248e-11
7.556818e-11
4.937948e-11
4.985702e-11
5.107356e-11
5.196811e-11
5.282534e-11
5.41567e-11
6.417284e-11
4.964578e-11
5.012055e-11
5.122892e-11
5.204934e-11
5.320077e-11
5.443657e-11
7.416376e-11
4.999552e-11
5.039046e-11
5.148204e-11
5.246402e-11
5.338736e-11
5.455443e-11
7.291092e-11
5.028325e-11
5.076367e-11
5.178914e-11
5.269885e-11
5.361458e-11
5.490176e-11
1.158947e-10
5.060883e-11
5.103396e-11
5.203208e-11
5.301601e-11
5.385687e-11
5.52327e-11
7.603011e-11
5.099772e-11
5.142399e-11
5.233901e-11
5.325105e-11
5.421925e-11
5.58024e-11
9.749565e-11
5.131849e-11
5.174921e-11
5.262267e-11
5.360907e-11
5.453894e-11
5.618433e-11
6.362244e-11
5.162462e-11
5.206784e-11
5.290794e-11
5.38826e-11
5.496433e-11
5.719813e-11
4.620967e-10
5.18395e-11
5.234689e-11
5.314377e-11
5.414427e-11
5.532509e-11
5.675387e-11
7.710464e-11
5.198531e-11
5.249667e-11
5.338194e-11
5.445931e-11
5.563432e-11
5.714313e-11
1.066545e-10
5.202004e-11
5.258045e-11
5.343507e-11
5.462655e-11
5.586182e-11
5.774907e-11
7.453855e-11
5.199357e-11
5.251557e-11
5.337564e-11
5.450101e-11
5.602176e-11
5.817423e-11
8.05172e-11
5.196814e-11
5.24538e-11
5.329701e-11
5.43731e-11
5.603843e-11
5.831555e-11
2.693727e-10
5.19693e-11
5.242535e-11
5.325952e-11
5.436131e-11
5.597143e-11
5.810498e-11
1.628233e-10
5.198396e-11
5.243208e-11
5.325994e-11
5.442795e-11
5.598194e-11
5.819729e-11
1.158677e-10
5.199741e-11
5.244938e-11
5.329031e-11
5.448318e-11
5.600534e-11
5.837578e-11
2.07615e-10
5.200671e-11
5.246869e-11
5.333473e-11
5.450009e-11
5.602946e-11
5.8445e-11
2.282878e-10
5.201414e-11
5.247259e-11
5.339352e-11
5.451705e-11
5.605453e-11
5.868717e-11
3.111702e-10
5.202417e-11
5.250795e-11
5.341054e-11
5.453445e-11
5.607938e-11
5.893989e-11
4.1998e-10
5.203821e-11
5.253907e-11
5.342275e-11
5.455068e-11
5.610255e-11
5.900129e-11
4.541189e-10
5.205754e-11
5.257244e-11
5.343354e-11
5.45656e-11
5.612358e-11
5.901918e-11
5.416017e-10
5.206712e-11
5.257732e-11
5.344386e-11
5.457921e-11
5.614291e-11
5.895206e-11
4.158477e-10
5.207985e-11
5.278375e-11
5.370873e-11
5.459556e-11
5.616152e-11
5.907332e-11
5.572736e-10
5.20953e-11
5.279077e-11
5.371949e-11
5.460619e-11
5.618296e-11
5.934723e-11
6.087477e-10
5.210045e-11
5.2797e-11
5.372807e-11
5.461721e-11
5.620089e-11
5.949152e-11
6.546805e-10
5.210439e-11
5.280238e-11
5.373584e-11
5.462747e-11
5.621611e-11
5.954528e-11
7.022621e-10
5.210858e-11
5.280748e-11
5.374318e-11
5.463713e-11
5.623201e-11
5.913154e-11
1.409333e-10
5.21126e-11
5.281216e-11
5.374997e-11
5.464632e-11
5.630918e-11
5.915098e-11
1.324868e-10
5.211563e-11
5.281655e-11
5.375638e-11
5.46549e-11
5.634104e-11
5.918198e-11
1.171825e-10
5.211852e-11
5.282072e-11
5.376242e-11
5.466284e-11
5.635116e-11
5.91823e-11
9.435723e-11
5.212125e-11
5.28246e-11
5.37681e-11
5.467039e-11
5.636088e-11
5.922489e-11
9.866113e-11
5.212385e-11
5.282825e-11
5.377352e-11
5.467746e-11
5.636994e-11
5.927284e-11
1.136137e-10
5.212621e-11
5.28317e-11
5.37786e-11
5.468419e-11
5.63786e-11
5.93246e-11
1.304307e-10
5.212848e-11
5.283512e-11
5.378356e-11
5.469237e-11
5.641979e-11
5.937697e-11
1.490475e-10
5.213064e-11
5.283846e-11
5.378823e-11
5.469966e-11
5.646938e-11
5.943133e-11
1.699303e-10
5.213271e-11
5.284163e-11
5.379267e-11
5.470549e-11
5.647526e-11
5.948567e-11
1.953908e-10
5.213468e-11
5.284468e-11
5.379694e-11
5.471113e-11
5.648087e-11
5.956166e-11
2.239801e-10
5.213662e-11
5.284759e-11
5.380108e-11
5.471651e-11
5.648609e-11
5.960504e-11
2.481784e-10
5.213853e-11
5.285047e-11
5.380507e-11
5.472176e-11
5.64911e-11
5.965057e-11
2.765691e-10
5.214052e-11
5.285342e-11
5.3809e-11
5.472688e-11
5.650605e-11
5.971892e-11
3.058536e-10
5.214263e-11
5.285642e-11
5.381413e-11
5.474225e-11
5.653143e-11
5.978626e-11
3.368968e-10
5.214509e-11
5.286045e-11
5.38334e-11
5.476828e-11
5.655712e-11
5.984835e-11
3.664385e-10
5.214843e-11
5.287592e-11
5.385415e-11
5.479458e-11
5.658297e-11
5.99066e-11
3.916542e-10
5.216088e-11
5.289292e-11
5.3876e-11
5.482124e-11
5.660792e-11
5.99655e-11
4.156198e-10
5.217487e-11
5.291032e-11
5.389827e-11
5.484667e-11
5.659855e-11
6.002393e-11
4.379018e-10
5.218953e-11
5.292819e-11
5.392087e-11
5.487387e-11
5.663033e-11
6.008015e-11
4.555257e-10
5.220484e-11
5.294644e-11
5.394371e-11
5.490113e-11
5.666336e-11
6.013518e-11
4.678573e-10
5.222084e-11
5.29649e-11
5.396664e-11
5.492851e-11
5.669659e-11
6.018884e-11
4.739915e-10
5.223685e-11
5.298315e-11
5.398947e-11
5.495559e-11
5.672995e-11
6.024021e-11
4.727339e-10
5.225252e-11
5.300148e-11
5.401225e-11
5.498245e-11
5.676339e-11
6.036181e-11
3.893664e-10
2.100943e-07
2.857107e-07
2.858629e-07
2.858544e-07
2.858542e-07
2.858542e-07
2.858542e-07
2.858542e-07
2.858542e-07
2.858542e-07
2.858542e-07
2.858542e-07
2.858542e-07
2.858542e-07
2.858542e-07
2.858542e-07
2.858542e-07
2.858542e-07
2.025801e-07
2.849589e-07
2.858458e-07
2.85854e-07
2.858541e-07
2.858541e-07
2.858541e-07
2.858541e-07
2.858541e-07
2.858541e-07
2.858541e-07
2.858541e-07
2.858541e-07
2.858541e-07
2.858541e-07
2.858541e-07
2.858541e-07
2.858541e-07
1.983959e-07
2.847438e-07
2.858488e-07
2.85854e-07
2.85854e-07
2.85854e-07
2.85854e-07
2.85854e-07
2.85854e-07
2.85854e-07
2.85854e-07
2.85854e-07
2.85854e-07
2.85854e-07
2.85854e-07
2.85854e-07
2.85854e-07
2.85854e-07
1.9431e-07
2.849316e-07
2.858524e-07
2.858541e-07
2.858541e-07
2.858541e-07
2.858541e-07
2.858541e-07
2.858541e-07
2.858541e-07
2.858541e-07
2.858541e-07
2.858541e-07
2.858541e-07
2.858541e-07
2.858541e-07
2.858541e-07
2.858541e-07
1.899156e-07
2.849071e-07
2.858529e-07
2.858541e-07
2.858541e-07
2.858541e-07
2.858541e-07
2.858541e-07
2.858541e-07
2.858541e-07
2.858541e-07
2.858541e-07
2.858541e-07
2.858541e-07
2.858541e-07
2.858541e-07
2.858541e-07
2.858541e-07
1.851318e-07
2.848494e-07
2.858529e-07
2.858541e-07
2.858541e-07
2.858541e-07
2.858541e-07
2.858541e-07
2.858541e-07
2.858541e-07
2.858541e-07
2.858541e-07
2.858541e-07
2.858541e-07
2.858541e-07
2.858541e-07
2.858541e-07
2.858541e-07
1.801862e-07
2.847981e-07
2.858528e-07
2.858541e-07
2.858541e-07
2.858541e-07
2.858541e-07
2.858541e-07
2.858541e-07
2.858541e-07
2.858541e-07
2.858541e-07
2.858541e-07
2.858541e-07
2.858541e-07
2.858541e-07
2.858541e-07
2.858541e-07
1.748979e-07
2.847711e-07
2.858528e-07
2.858541e-07
2.858541e-07
2.858541e-07
2.858541e-07
2.858541e-07
2.858541e-07
2.858541e-07
2.858541e-07
2.858541e-07
2.858541e-07
2.858541e-07
2.858541e-07
2.858541e-07
2.858541e-07
2.858541e-07
1.699377e-07
2.847342e-07
2.858527e-07
2.858541e-07
2.858541e-07
2.858541e-07
2.858541e-07
2.858541e-07
2.858541e-07
2.858541e-07
2.858541e-07
2.858541e-07
2.858541e-07
2.858541e-07
2.858541e-07
2.858541e-07
2.858541e-07
2.858541e-07
1.646934e-07
2.846807e-07
2.858527e-07
2.858541e-07
2.858541e-07
2.858541e-07
2.858541e-07
2.858541e-07
2.858541e-07
2.858541e-07
2.858541e-07
2.858541e-07
2.858541e-07
2.858541e-07
2.858541e-07
2.858541e-07
2.858541e-07
2.858541e-07
1.59242e-07
2.846436e-07
2.858527e-07
2.858541e-07
2.858541e-07
2.858541e-07
2.858541e-07
2.858541e-07
2.858541e-07
2.858541e-07
2.858541e-07
2.858541e-07
2.858541e-07
2.858541e-07
2.858541e-07
2.858541e-07
2.858541e-07
2.858541e-07
1.540683e-07
2.846252e-07
2.858525e-07
2.858541e-07
2.858541e-07
2.858541e-07
2.858541e-07
2.858541e-07
2.858541e-07
2.858541e-07
2.858541e-07
2.858541e-07
2.858541e-07
2.858541e-07
2.858541e-07
2.858541e-07
2.858541e-07
2.858541e-07
1.492523e-07
2.844714e-07
2.858513e-07
2.85854e-07
2.858541e-07
2.858541e-07
2.858541e-07
2.858541e-07
2.858541e-07
2.858541e-07
2.858541e-07
2.858541e-07
2.858541e-07
2.858541e-07
2.858541e-07
2.858541e-07
2.858541e-07
2.858541e-07
1.403462e-07
2.840143e-07
2.858454e-07
2.858537e-07
2.858541e-07
2.858541e-07
2.858541e-07
2.858541e-07
2.858541e-07
2.858541e-07
2.858541e-07
2.858541e-07
2.858541e-07
2.858541e-07
2.858541e-07
2.858541e-07
2.858541e-07
2.858541e-07
1.200309e-07
2.839763e-07
2.858373e-07
2.85852e-07
2.85854e-07
2.858541e-07
2.858541e-07
2.858541e-07
2.858541e-07
2.858541e-07
2.858541e-07
2.858541e-07
2.858541e-07
2.858541e-07
2.858541e-07
2.858541e-07
2.858541e-07
2.858541e-07
1.129133e-07
2.838388e-07
2.858508e-07
2.858491e-07
2.858535e-07
2.858541e-07
2.858541e-07
2.858541e-07
2.858541e-07
2.858541e-07
2.858541e-07
2.858541e-07
2.858541e-07
2.858541e-07
2.858541e-07
2.858541e-07
2.858541e-07
2.858541e-07
1.05781e-07
2.835316e-07
2.858487e-07
2.858534e-07
2.858526e-07
2.85854e-07
2.858541e-07
2.858541e-07
2.858541e-07
2.858541e-07
2.858541e-07
2.858541e-07
2.858541e-07
2.858541e-07
2.858541e-07
2.858541e-07
2.858541e-07
2.858541e-07
9.88196e-08
2.8342e-07
2.858558e-07
2.858535e-07
2.858538e-07
2.858538e-07
2.858541e-07
2.858541e-07
2.858541e-07
2.858541e-07
2.858541e-07
2.858541e-07
2.858541e-07
2.858541e-07
2.858541e-07
2.858541e-07
2.858541e-07
2.858541e-07
9.21378e-08
2.833565e-07
2.85855e-07
2.858558e-07
2.85854e-07
2.858539e-07
2.85854e-07
2.858541e-07
2.858541e-07
2.858541e-07
2.858541e-07
2.858541e-07
2.858541e-07
2.858541e-07
2.858541e-07
2.858541e-07
2.858541e-07
2.858541e-07
8.603408e-08
2.832633e-07
2.858517e-07
2.858554e-07
2.858545e-07
2.858541e-07
2.85854e-07
2.858541e-07
2.858541e-07
2.858541e-07
2.858541e-07
2.858541e-07
2.858541e-07
2.858541e-07
2.858541e-07
2.858541e-07
2.858541e-07
2.858541e-07
8.094411e-08
2.831553e-07
2.858509e-07
2.858544e-07
2.858544e-07
2.858541e-07
2.858541e-07
2.858541e-07
2.858541e-07
2.858541e-07
2.858541e-07
2.858541e-07
2.858541e-07
2.858541e-07
2.858541e-07
2.858541e-07
2.858541e-07
2.858541e-07
7.536852e-08
2.830403e-07
2.858508e-07
2.858541e-07
2.858541e-07
2.858541e-07
2.858541e-07
2.858541e-07
2.858541e-07
2.858541e-07
2.858541e-07
2.858541e-07
2.858541e-07
2.858541e-07
2.858541e-07
2.858541e-07
2.858541e-07
2.858541e-07
7.152823e-08
2.828814e-07
2.858507e-07
2.858541e-07
2.85854e-07
2.858541e-07
2.858541e-07
2.858541e-07
2.858541e-07
2.858541e-07
2.858541e-07
2.858541e-07
2.858541e-07
2.858541e-07
2.858541e-07
2.858541e-07
2.858541e-07
2.858541e-07
6.678252e-08
2.82748e-07
2.858507e-07
2.858541e-07
2.85854e-07
2.858541e-07
2.858541e-07
2.858541e-07
2.858541e-07
2.858541e-07
2.858541e-07
2.858541e-07
2.858541e-07
2.858541e-07
2.85854e-07
2.858541e-07
2.858541e-07
2.858541e-07
6.226685e-08
2.826352e-07
2.858508e-07
2.85854e-07
2.858539e-07
2.858541e-07
2.858541e-07
2.858541e-07
2.858541e-07
2.858541e-07
2.858541e-07
2.858541e-07
2.858541e-07
2.85854e-07
2.85854e-07
2.858541e-07
2.858541e-07
2.858541e-07
5.805812e-08
2.825126e-07
2.858508e-07
2.858539e-07
2.858538e-07
2.858541e-07
2.858541e-07
2.858541e-07
2.858541e-07
2.858541e-07
2.858541e-07
2.858541e-07
2.858541e-07
2.85854e-07
2.85854e-07
2.858541e-07
2.858541e-07
2.858541e-07
5.360104e-08
2.823926e-07
2.858509e-07
2.858526e-07
2.858524e-07
2.858541e-07
2.85854e-07
2.85854e-07
2.85854e-07
2.858541e-07
2.858541e-07
2.858541e-07
2.858541e-07
2.85854e-07
2.85854e-07
2.858541e-07
2.858541e-07
2.858541e-07
4.919292e-08
2.823319e-07
2.858508e-07
2.858368e-07
2.858391e-07
2.858541e-07
2.85854e-07
2.858538e-07
2.858539e-07
2.858541e-07
2.858541e-07
2.858541e-07
2.858541e-07
2.858541e-07
2.858541e-07
2.858541e-07
2.858541e-07
2.85854e-07
4.498399e-08
2.82365e-07
2.858498e-07
2.857337e-07
2.857577e-07
2.858547e-07
2.858539e-07
2.858516e-07
2.858529e-07
2.858541e-07
2.858541e-07
2.858541e-07
2.858541e-07
2.858541e-07
2.858541e-07
2.858541e-07
2.858541e-07
2.85854e-07
4.055422e-08
2.82613e-07
2.858464e-07
2.855041e-07
2.856127e-07
2.858561e-07
2.858536e-07
2.858433e-07
2.858483e-07
2.858543e-07
2.858541e-07
2.858541e-07
2.858541e-07
2.85854e-07
2.858541e-07
2.858541e-07
2.858541e-07
2.85854e-07
3.700333e-08
2.83149e-07
2.858336e-07
2.856757e-07
2.8581e-07
2.858497e-07
2.858533e-07
2.858443e-07
2.858454e-07
2.858543e-07
2.858541e-07
2.858541e-07
2.85854e-07
2.85854e-07
2.858541e-07
2.858541e-07
2.85854e-07
2.85854e-07
3.314345e-08
2.837234e-07
2.857514e-07
2.853729e-07
2.854233e-07
2.858142e-07
2.858526e-07
2.85858e-07
2.858594e-07
2.858537e-07
2.858541e-07
2.858541e-07
2.858539e-07
2.858538e-07
2.858541e-07
2.858541e-07
2.858539e-07
2.858539e-07
2.933335e-08
2.819035e-07
2.856473e-07
2.849358e-07
2.85049e-07
2.8564e-07
2.858491e-07
2.858485e-07
2.85848e-07
2.858525e-07
2.858541e-07
2.858541e-07
2.858539e-07
2.858542e-07
2.858541e-07
2.85854e-07
2.858537e-07
2.858539e-07
2.226613e-08
2.794747e-07
2.856411e-07
2.85457e-07
2.852336e-07
2.855109e-07
2.858398e-07
2.858417e-07
2.858422e-07
2.858517e-07
2.858545e-07
2.858543e-07
2.858537e-07
2.858542e-07
2.858541e-07
2.858539e-07
2.858533e-07
2.858541e-07
1.722364e-08
2.831964e-07
2.85607e-07
2.859801e-07
2.858503e-07
2.860424e-07
2.858574e-07
2.858605e-07
2.858579e-07
2.85868e-07
2.858623e-07
2.858581e-07
2.858547e-07
2.858547e-07
2.858541e-07
2.858535e-07
2.858531e-07
2.858541e-07
1.096147e-08
2.832414e-07
2.849883e-07
2.852933e-07
2.858588e-07
2.859029e-07
2.860391e-07
2.860152e-07
2.859954e-07
2.859619e-07
2.859282e-07
2.858966e-07
2.858711e-07
2.858624e-07
2.858562e-07
2.858536e-07
2.858537e-07
2.858541e-07
3.259573e-09
2.814099e-07
2.839869e-07
2.852742e-07
2.864499e-07
2.865195e-07
2.865483e-07
2.864985e-07
2.86429e-07
2.863558e-07
2.862371e-07
2.861046e-07
2.859941e-07
2.859278e-07
2.858798e-07
2.858611e-07
2.858553e-07
2.858543e-07
1.410481e-08
2.883641e-07
2.852332e-07
2.865196e-07
2.869389e-07
2.869441e-07
2.870308e-07
2.87072e-07
2.870142e-07
2.869401e-07
2.868239e-07
2.866338e-07
2.864333e-07
2.86208e-07
2.860166e-07
2.859224e-07
2.858745e-07
2.858577e-07
1.400898e-08
2.487423e-07
2.830876e-07
2.86838e-07
2.873803e-07
2.872963e-07
2.874575e-07