/*--------------------------------*- C++ -*----------------------------------*\
| =========                 |                                                 |
| \\      /  F ield         | OpenFOAM: The Open Source CFD Toolbox           |
|  \\    /   O peration     | Version:  2206                                  |
|   \\  /    A nd           | Website:  www.openfoam.com                      |
|    \\/     M anipulation  |                                                 |
\*---------------------------------------------------------------------------*/
FoamFile
{
    version     2.0;
    format      ascii;
    arch        "LSB;label=32;scalar=64";
    class       volScalarField;
    location    "2.4";
    object      muEff;
}
// * * * * * * * * * * * * * * * * * * * * * * * * * * * * * * * * * * * * * //

dimensions      [1 -1 -1 0 0 0 0];

internalField   nonuniform List<scalar> 
13078
(
0.0368053
0.0368053
0.0368053
0.0368053
0.0368053
0.0368053
0.0368053
0.0368053
0.0368053
0.0368053
0.0368053
0.0368053
0.0368053
0.0368053
0.0368053
0.0368053
0.0368053
0.0368053
0.0368053
0.0368053
0.0368053
0.0368053
0.0368053
0.0368053
0.0368053
0.0368053
0.0368053
0.0368053
0.0368053
0.0368053
0.0368053
0.0368053
0.0368053
0.0368053
0.0368053
0.0368053
0.0368053
0.0368053
0.0368053
0.0368053
0.0368053
0.0368053
0.0368053
0.0368053
0.0368053
0.0368053
0.0368053
0.0368053
0.0368053
0.0368053
0.0368053
0.0368053
0.0368053
0.0368053
0.0368053
0.0368053
0.0368053
0.0368053
0.0368053
0.0368053
0.0368053
0.0368053
0.0368053
0.0368053
0.0368053
0.0368053
0.0368053
0.0368053
0.0368053
0.0368053
0.0368053
0.0368053
0.0368053
0.0368053
0.0368053
0.0368053
0.0368053
0.0368053
0.0368053
0.0368053
0.0368053
0.0368053
0.0368053
0.0368053
0.0368053
0.0368053
0.0368053
0.0368053
0.0368053
0.0368053
0.0368053
0.0368053
0.0368053
0.0368053
0.0368053
0.0368053
0.0368053
0.0368053
0.0368053
0.0368053
0.0368053
0.0368053
0.0368053
0.0368053
0.0368053
0.0368053
0.0368053
0.0368053
0.0368053
0.0368053
0.0368053
0.0368053
0.0368053
0.0368053
0.0368053
0.0368053
0.0368053
0.0368053
0.0368053
0.0368053
0.0368053
0.0368053
0.0368053
0.0368053
0.0368053
0.0368053
0.0368053
0.0368053
0.0368053
0.0368053
0.0368053
0.0368053
0.0368053
0.0368053
0.0368053
0.0368053
0.0368053
0.0368053
0.0368053
0.0368053
0.0368053
0.0368053
0.0368053
0.0368053
0.0368053
0.0368053
0.0368053
0.0368053
0.0368053
0.0368053
0.0368053
0.0368053
0.0368053
0.0368053
0.0368053
0.0368053
0.0368053
0.0368053
0.0368053
0.0368053
0.0368053
0.0368053
0.0368053
0.0368053
0.0368053
0.0368053
0.0368053
0.0368053
0.0368053
0.0368053
0.0368053
0.0368053
0.0368053
0.0368053
0.0368053
0.0368053
0.0368053
0.0368053
0.0368053
0.0368053
0.0368053
0.0368053
0.0368053
0.0368053
0.0368053
0.0368053
0.0368053
0.0368053
0.0368053
0.0368053
0.0368053
0.0368053
0.0368053
0.0368053
0.0368053
0.0368053
0.0368053
0.0368053
0.0368053
0.0368053
0.0368053
0.0368053
0.0368053
0.0368053
0.0368053
0.0368053
0.0368053
0.0368053
0.0368053
0.0368053
0.0368053
0.0368053
0.0368053
0.0368053
0.0368053
0.0368053
0.0368053
0.0368053
0.0368053
0.0368053
0.0368053
0.0368053
0.0368053
0.0368053
0.0368053
0.0368053
0.0368053
0.0368053
0.0368053
0.0368053
0.0368053
0.0368053
0.0368053
0.0368053
0.0368053
0.0368053
0.0368053
0.0368053
0.0368053
0.0368053
0.0368053
0.0368053
0.0368053
0.0368053
0.0368053
0.0368053
0.0368053
0.0368053
0.0368053
0.0368053
0.0368053
0.0368053
0.0368053
0.0368053
0.0368053
0.0368053
0.0368053
0.0368053
0.0368053
0.0368053
0.0368053
0.0368053
0.0368053
0.0368053
0.0368053
0.0368053
0.0368053
0.0368053
0.0368053
0.0368053
0.0368053
0.0368053
0.0368053
0.0368053
0.0368053
0.0368053
0.0368053
0.0368053
0.0368053
0.0368053
0.0368053
0.0368053
0.0368053
0.0368053
0.0368053
0.0368053
0.0368053
0.0368053
0.0368053
0.0368053
0.0368053
0.0368053
0.0368053
0.0368053
0.0368053
0.0368053
0.0368053
0.0368053
0.0368053
0.0368053
0.0368053
0.0368053
0.0368053
0.0368053
0.0368053
0.0368053
0.0368053
0.0368053
0.0368053
0.0368053
0.0368053
0.0368053
0.0368053
0.0368053
0.0368053
0.0368053
0.0368053
0.0368053
0.0368053
0.0368053
0.0368053
0.0368053
0.0368053
0.0368053
0.0368053
0.0368053
0.0368053
0.0368053
0.0368053
0.0368053
0.0368053
0.0368053
0.0368053
0.0368053
0.0368053
0.0368053
0.0368053
0.0368053
0.0368053
0.0368053
0.0368053
0.0368053
0.0368053
0.0368053
0.0368053
0.0368053
0.0368053
0.0368053
0.0368053
0.0368053
0.0368053
0.0368053
0.0368053
0.0368053
0.0368053
0.0368053
0.0368053
0.0368053
0.0368053
0.0368053
0.0368053
0.0368053
0.0368053
0.0368053
0.0368053
0.0368053
0.0368053
0.0368053
0.0368053
0.0368053
0.0368053
0.0368053
0.0368053
0.0368053
0.0368053
0.0368053
0.0368053
0.0368053
0.0368053
0.0368053
0.0368053
0.0368053
0.0368053
0.0368053
0.0368053
0.0368053
0.0368053
0.0368053
0.0368053
0.0368053
0.0368053
0.0368053
0.0368053
0.0368053
0.0368053
0.0368053
0.0368053
0.0368053
0.0368053
0.0368053
0.0368053
0.0368053
0.0368053
0.0368053
0.0368053
0.0368053
0.0368053
0.0368053
0.0368053
0.0368053
0.0368053
0.0368053
0.0368053
0.0368053
0.0368053
0.0368053
0.0368053
0.0368053
0.0368053
0.0368053
0.0368053
0.0368053
0.0368053
0.0368053
0.0368053
0.0368053
0.0368053
0.0368053
0.0368053
0.0368053
0.0368053
0.0368053
0.0368053
0.0368053
0.0368053
0.0368053
0.0368053
0.0368053
0.0368053
0.0368053
0.0368053
0.0368053
0.0368053
0.0368053
0.0368053
0.0368053
0.0368053
0.0368053
0.0368053
0.0368053
0.0368053
0.0368053
0.0368053
0.0368053
0.0368053
0.0368053
0.0368053
0.0368053
0.0368053
0.0368053
0.0368053
0.0368053
0.0368053
0.0368053
0.0368053
0.0368053
0.0368053
0.0368053
0.0368053
0.0368053
0.0368053
0.0368053
0.0368053
0.0368053
0.0368053
0.0368053
0.0368053
0.0368053
0.0368053
0.0368053
0.0368053
0.0368053
0.0368053
0.0368053
0.0368053
0.0368053
0.0368053
0.0368053
0.0368053
0.0368053
0.0368053
0.0368053
0.0368053
0.0368053
0.0368053
0.0368053
0.0368053
0.0368053
0.0368053
0.0368053
0.0368053
0.0368053
0.0368053
0.0368053
0.0368053
0.0368053
0.0368053
0.0368053
0.0368053
0.0368053
0.0368053
0.0368053
0.0368053
0.0368053
0.0368053
0.0368053
0.0368053
0.0368053
0.0368053
0.0368053
0.0368053
0.0368053
0.0368053
0.0368053
0.0368053
0.0368053
0.0368053
0.0368053
0.0368053
0.0368053
0.0368053
0.0368053
0.0368053
0.0368053
0.0368053
0.0368053
0.0368053
0.0368053
0.0368053
0.0368053
0.0368053
0.0368053
0.0368053
0.0368053
0.0368053
0.0368053
0.0368053
0.0368053
0.0368053
0.0368053
0.0368053
0.0368053
0.0368053
0.0368053
0.0368053
0.0368053
0.0368053
0.0368053
0.0368053
0.0368053
0.0368053
0.0368053
0.0368053
0.0368053
0.0368053
0.0368053
0.0368053
0.0368053
0.0368053
0.0368053
0.0368053
0.0368053
0.0368053
0.0368053
0.0368053
0.0368053
0.0368053
0.0368053
0.0368053
0.0368053
0.0368053
0.0368053
0.0368053
0.0368053
0.0368053
0.0368053
0.0368053
0.0368053
0.0368053
0.0368053
0.0368053
0.0368053
0.0368053
0.0368053
0.0368053
0.0368053
0.0368053
0.0368053
0.0368053
0.0368053
0.0368053
0.0368053
0.0368053
0.0368053
0.0368053
0.0368053
0.0368053
0.0368053
0.0368053
0.0368053
0.0368053
0.0368053
0.0368053
0.0368053
0.0368053
0.0368053
0.0368053
0.0368053
0.0368053
0.0368053
0.0368053
0.0368053
0.0368053
0.0368053
0.0368053
0.0368053
0.0368053
0.0368053
0.0368053
0.0368053
0.0368053
0.0368053
0.0368053
0.0368053
0.0368053
0.0368053
0.0368053
0.0368053
0.0368053
0.0368053
0.0368053
0.0368053
0.0368053
0.0368053
0.0368053
0.0368053
0.0368053
0.0368053
0.0368053
0.0368053
0.0368053
0.0368053
0.0368053
0.0368053
0.0368053
0.0368053
0.0368053
0.0368053
0.0368053
0.0368053
0.0368053
0.0368053
0.0368053
0.0368053
0.0368053
0.0368053
0.0368053
0.0368053
0.0368053
0.0368053
0.0368053
0.0368053
0.0368053
0.0368053
0.0368053
0.0368053
0.0368053
0.0368053
0.0368053
0.0368053
0.0368053
0.0368053
0.0368053
0.0368053
0.0368053
0.0368053
0.0368053
0.0368053
0.0368053
0.0368053
0.0368053
0.0368053
0.0368053
0.0368053
0.0368053
0.0368053
0.0368053
0.0368053
0.0368053
0.0368053
0.0368053
0.0368053
0.0368053
0.0368053
0.0368053
0.0368053
0.0368053
0.0368053
0.0368053
0.0368053
0.0368053
0.0368053
0.0368053
0.0368053
0.0368053
0.0368053
0.0368053
0.0368053
0.0368053
0.0368053
0.0368053
0.0368053
0.0368053
0.0368053
0.0368053
0.0368053
0.0368053
0.0368053
0.0368053
0.0368053
0.0368053
0.0368053
0.0368053
0.0368053
0.0368053
0.0368053
0.0368053
0.0368053
0.0368053
0.0368053
0.0368053
0.0368053
0.0368053
0.0368053
0.0368053
0.0368053
0.0368053
0.0368053
0.0368053
0.0368053
0.0368053
0.0368053
0.0368053
0.0368053
0.0368053
0.0368053
0.0368053
0.0368053
0.0368053
0.0368053
0.0368053
0.0368053
0.0368053
0.0368053
0.0368053
0.0368053
0.0368053
0.0368053
0.0368053
0.0368053
0.0368053
0.0368053
0.0368053
0.0368053
0.0368053
0.0368053
0.0368053
0.0368053
0.0368053
0.0368053
0.0368053
0.0368053
0.0368053
0.0368053
0.0368053
0.0368053
0.0368053
0.0368053
0.0368053
0.0368053
0.0368053
0.0368053
0.0368053
0.0368053
0.0368053
0.0368053
0.0368053
0.0368053
0.0368053
0.0368053
0.0368053
0.0368053
0.0368053
0.0368053
0.0368053
0.0368053
0.0368053
0.0368053
0.0368053
0.0368053
0.0368053
0.0368053
0.0368053
0.0368053
0.0368053
0.0368053
0.0368053
0.0368053
0.0368053
0.0368053
0.0368053
0.0368053
0.0368053
0.0368053
0.0368053
0.0368053
0.0368053
0.0368053
0.0368053
0.0368053
0.0368053
0.0368053
0.0368053
0.0368053
0.0368053
0.0368053
0.0368053
0.0368053
0.0368053
0.0368053
0.0368053
0.0368053
0.0368053
0.0368053
0.0368053
0.0368053
0.0368053
0.0368053
0.0368053
0.0368053
0.0368053
0.0368053
0.0368053
0.0368053
0.0368053
0.0368053
0.0368053
0.0368053
0.0368053
0.0368053
0.0368053
0.0368053
0.0368053
0.0368053
0.0368053
0.0368053
0.0368053
0.0368053
0.0368053
0.0368053
0.0368053
0.0368053
0.0368053
0.0368053
0.0368053
0.0368053
0.0368053
0.0368053
0.0368053
0.0368053
0.0368053
0.0368053
0.0368053
0.0368053
0.0368053
0.0368053
0.0368053
0.0368053
0.0368053
0.0368053
0.0368053
0.0368053
0.0368053
0.0368053
0.0368053
0.0368053
0.0368053
0.0368053
0.0368053
0.0368053
0.0368053
0.0368053
0.0368053
0.0368053
0.0368053
0.0368053
0.0368053
0.0368053
0.0368053
0.0368053
0.0368053
0.0368053
0.0368053
0.0368053
0.0368053
0.0368053
0.0368053
0.0368053
0.0368053
0.0368053
0.0368053
0.0368053
0.0368053
0.0368053
0.0368053
0.0368053
0.0368053
0.0368053
0.0368053
0.0368053
0.0368053
0.0368053
0.0368053
0.0368053
0.0368053
0.0368053
0.0368053
0.0368053
0.0368053
0.0368053
0.0368053
0.0368053
0.0368053
0.0368053
0.0368053
0.0368053
0.0368053
0.0368053
0.0368053
0.0368053
0.0368053
0.0368053
0.0368053
0.0368053
0.0368053
0.0368053
0.0368053
0.0368053
0.0368053
0.0368053
0.0368053
0.0368053
0.0368053
0.0368053
0.0368053
0.0368053
0.0368053
0.0368053
0.0368053
0.0368053
0.0368053
0.0368053
0.0368053
0.0368053
0.0368053
0.0368053
0.0368053
0.0368053
0.0368053
0.0368053
0.0368053
0.0368053
0.0368053
0.0368053
0.0368053
0.0368053
0.0368053
0.0368053
0.0368053
0.0368053
0.0368053
0.0368053
0.0368053
0.0368053
0.0368053
0.0368053
0.0368053
0.0368053
0.0368053
0.0368053
0.0368053
0.0368053
0.0368053
0.0368053
0.0368053
0.0368053
0.0368053
0.0368053
0.0368053
0.0368053
0.0368053
0.0368053
0.0368053
0.0368053
0.0368053
0.0368053
0.0368053
0.0368053
0.0368053
0.0368053
0.0368053
0.0368053
0.0368053
0.0368053
0.0368053
0.0368053
0.0368053
0.0368053
0.0368053
0.0368053
0.0368053
0.0368053
0.0368053
0.0368053
0.0368053
0.0368053
0.0368053
0.0368053
0.0368053
0.0368053
0.0368053
0.0368053
0.0368053
0.0368053
0.0368053
0.0368053
0.0368053
0.0368053
0.0368053
0.0368053
0.0368053
0.0368053
0.0368053
0.0368053
0.0368053
0.0368053
0.0368053
0.0368053
0.0368053
0.0368053
0.0368053
0.0368053
0.0368053
0.0368053
0.0368053
0.0368053
0.0368053
0.0368053
0.0368053
0.0368053
0.0368053
0.0368053
0.0368053
0.0368053
0.0368053
0.0368053
0.0368053
0.0368053
0.0368053
0.0368053
0.0368053
0.0368053
0.0368053
0.0368053
0.0368053
0.0368053
0.0368053
0.0368053
0.0368053
0.0368053
0.0368053
0.0368053
0.0368053
0.0368053
0.0368053
0.0368053
0.0368053
0.0368053
0.0368053
0.0368053
0.0368053
0.0368053
0.0368053
0.0368053
0.0368053
0.0368053
0.0368053
0.0368053
0.0368053
0.0368053
0.0368053
0.0368053
0.0368053
0.0368053
0.0368053
0.0368053
0.0368053
0.0368053
0.0368053
0.0368053
0.0368053
0.0368053
0.0368053
0.0368053
0.0368053
0.0368053
0.0368053
0.0368053
0.0368053
0.0368053
0.0368053
0.0368053
0.0368053
0.0368053
0.0368053
0.0368053
0.0368053
0.0368053
0.0368053
0.0368053
0.0368053
0.0368053
0.0368053
0.0368053
0.0368053
0.0368053
0.0368053
0.0368053
0.0368053
0.0368053
0.0368053
0.0368053
0.0368053
0.0368053
0.0368053
0.0368053
0.0368053
0.0368053
0.0368053
0.0368053
0.0368053
0.0368053
0.0368053
0.0368053
0.0368053
0.0368053
0.0368053
0.0368053
0.0368053
0.0368053
0.0368053
0.0368053
0.0368053
0.0368053
0.0368053
0.0368053
0.0368053
0.0368053
0.0368053
0.0368053
0.0368053
0.0368053
0.0368053
0.0368053
0.0368053
0.0368053
0.0368053
0.0368053
0.0368053
0.0368053
0.0368053
0.0368053
0.0368053
0.0368053
0.0368053
0.0368053
0.0368053
0.0368053
0.0368053
0.0368053
0.0368053
0.0368053
0.0368053
0.0368053
0.0368053
0.0368053
0.0368053
0.0368053
0.0368053
0.0368053
0.0368053
0.0368053
0.0368053
0.0368053
0.0368053
0.0368053
0.0368053
0.0368053
0.0368053
0.0368053
0.0368053
0.0368053
0.0368053
0.0368053
0.0368053
0.0368053
0.0368053
0.0368053
0.0368053
0.0368053
0.0368053
0.0368053
0.0368053
0.0368053
0.0368053
0.0368053
0.0368053
0.0368053
0.0368053
0.0368053
0.0368053
0.0368053
0.0368053
0.0368053
0.0368053
0.0368053
0.0368053
0.0368053
0.0368053
0.0368053
0.0368053
0.0368053
0.0368053
0.0368053
0.0368053
0.0368053
0.0368053
0.0368053
0.0368053
0.0368053
0.0368053
0.0368053
0.0368053
0.0368053
0.0368053
0.0368053
0.0368053
0.0368053
0.0368053
0.0368053
0.0368053
0.0368053
0.0368053
0.0368053
0.0368053
0.0368053
0.0368053
0.0368053
0.0368053
0.0368053
0.0368053
0.0368053
0.0368053
0.0368053
0.0368053
0.0368053
0.0368053
0.0368053
0.0368053
0.0368053
0.0368053
0.0368053
0.0368053
0.0368053
0.0368053
0.0368053
0.0368053
0.0368053
0.0368053
0.0368053
0.0368053
0.0368053
0.0368053
0.0368053
0.0368053
0.0368053
0.0368053
0.0368053
0.0368053
0.0368053
0.0368053
0.0368053
0.0368053
0.0368053
0.0368053
0.0368053
0.0368053
0.0368053
0.0368053
0.0368053
0.0368053
0.0368053
0.0368053
0.0368053
0.0368053
0.0368053
0.0368053
0.0368053
0.0368053
0.0368053
0.0368053
0.0368053
0.0368053
0.0368053
0.0368053
0.0368053
0.0368053
0.0368053
0.0368053
0.0368053
0.0368053
0.0368053
0.0368053
0.0368053
0.0368053
0.0368053
0.0368053
0.0368053
0.0368053
0.0368053
0.0368053
0.0368053
0.0368053
0.0368053
0.0368053
0.0368053
0.0368053
0.0368053
0.0368053
0.0368053
0.0368053
0.0368053
0.0368053
0.0368053
0.0368053
0.0368053
0.0368053
0.0368053
0.0368053
0.0368053
0.0368053
0.0368053
0.0368053
0.0368053
0.0368053
0.0368053
0.0368053
0.0368053
0.0368053
0.0368053
0.0368053
0.0368053
0.0368053
0.0368053
0.0368053
0.0368053
0.0368053
0.0368053
0.0368053
0.0368053
0.0368053
0.0368053
0.0368053
0.0368053
0.0368053
0.0368053
0.0368053
0.0368053
0.0368053
0.0368053
0.0368053
0.0368053
0.0368053
0.0368053
0.0368053
0.0368053
0.0368053
0.0368053
0.0368053
0.0368053
0.0368053
0.0368053
0.0368053
0.0368053
0.0368053
0.0368053
0.0368053
0.0368053
0.0368053
0.0368053
0.0368053
0.0368053
0.0368053
0.0368053
0.0368053
0.0368053
0.0368053
0.0368053
0.0368053
0.0368053
0.0368053
0.0368053
0.0368053
0.0368053
0.0368053
0.0368053
0.0368053
0.0368053
0.0368053
0.0368053
0.0368053
0.0368053
0.0368053
0.0368053
0.0368053
0.0368053
0.0368053
0.0368053
0.0368053
0.0368053
0.0368053
0.0368053
0.0368053
0.0368053
0.0368053
0.0368053
0.0368053
0.0368053
0.0368053
0.0368053
0.0368053
0.0368053
0.0368053
0.0368053
0.0368053
0.0368053
0.0368053
0.0368053
0.0368053
0.0368053
0.0368053
0.0368053
0.0368053
0.0368053
0.0368053
0.0368053
0.0368053
0.0368053
0.0368053
0.0368053
0.0368053
0.0368053
0.0368053
0.0368053
0.0368053
0.0368053
0.0368053
0.0368053
0.0368053
0.0368053
0.0368053
0.0368053
0.0368053
0.0368053
0.0368053
0.0368053
0.0368053
0.0368053
0.0368053
0.0368053
0.0368053
0.0368053
0.0368053
0.0368053
0.0368053
0.0368053
0.0368053
0.0368053
0.0368053
0.0368053
0.0368053
0.0368053
0.0368053
0.0368053
0.0368053
0.0368053
0.0368053
0.0368053
0.0368053
0.0368053
0.0368053
0.0368053
0.0368053
0.0368053
0.0368053
0.0368053
0.0368053
0.0368053
0.0368053
0.0368053
0.0368053
0.0368053
0.0368053
0.0368053
0.0368053
0.0368053
0.0368053
0.0368053
0.0368053
0.0368053
0.0368053
0.0368053
0.0368053
0.0368053
0.0368053
0.0368053
0.0368053
0.0368053
0.0368053
0.0368053
0.0368053
0.0368053
0.0368053
0.0368053
0.0368053
0.0368053
0.0368053
0.0368053
0.0368053
0.0368053
0.0368053
0.0368053
0.0368053
0.0368053
0.0368053
0.00101256
0.001002435
0.001005997
0.001009815
0.001014523
0.001025455
0.001061081
0.001049437
0.001055196
0.001050427
0.001045375
0.001041313
0.001038067
0.001035456
0.001033449
0.001031717
0.001030338
0.001029203
0.001027814
0.001004549
0.001008504
0.001011463
0.001015482
0.001027375
0.001062768
0.001054033
0.001056676
0.001048643
0.001044144
0.001040716
0.001037672
0.001035154
0.001033201
0.001031511
0.001030178
0.001029072
0.001032479
0.001008031
0.001012972
0.001013892
0.001017126
0.001029282
0.001068391
0.001059231
0.001057706
0.001046252
0.001042546
0.001039524
0.001036885
0.001034564
0.001032769
0.001031096
0.00102988
0.001028821
0.001035154
0.001009585
0.001016627
0.001015877
0.001018507
0.001030526
0.001069307
0.001062572
0.001057796
0.001044349
0.001040507
0.001037918
0.001035732
0.001033747
0.001032188
0.00103047
0.001029429
0.001028446
0.001037818
0.001009971
0.001019253
0.001017447
0.001019806
0.001031326
0.001068178
0.001061171
0.001054703
0.001043049
0.001038327
0.001035954
0.001034327
0.00103271
0.001031457
0.001029687
0.001028863
0.001027965
0.001040449
0.001009751
0.001021489
0.001018702
0.001020847
0.001031852
0.001064605
0.001054706
0.001050079
0.001041647
0.001036278
0.001034328
0.001032797
0.00103145
0.001030594
0.001028807
0.00102819
0.0010274
0.001043137
0.0010097
0.001023588
0.001019792
0.00102178
0.001032355
0.001054486
0.001049142
0.001045683
0.001039344
0.001034888
0.001032526
0.00103125
0.001030215
0.001029549
0.001027911
0.001027448
0.001026751
0.001045813
0.00100943
0.001025496
0.001020654
0.001022579
0.001032535
0.001048641
0.001043569
0.001041447
0.001036601
0.001033336
0.001030855
0.001029715
0.001028965
0.001028486
0.001026962
0.001026642
0.001026054
0.001048477
0.00100935
0.00102666
0.001021269
0.001023193
0.001032521
0.001044722
0.001037591
0.001037457
0.001034344
0.001031627
0.001029067
0.001028314
0.001027706
0.001027391
0.001025996
0.001025797
0.001025321
0.001051262
0.001008885
0.001028192
0.001021686
0.001023565
0.00103206
0.001040389
0.00103564
0.001033741
0.001031961
0.00102874
0.001027407
0.001026985
0.001026503
0.001026286
0.001025028
0.001024935
0.00102455
0.001054079
0.001008421
0.001029085
0.001021619
0.001023429
0.00103091
0.001036283
0.001033685
0.001030633
0.001028238
0.001026688
0.001025965
0.001025652
0.001025246
0.001025224
0.001024031
0.00102408
0.001023773
0.001056829
0.001007919
0.001028375
0.00102066
0.001022674
0.001029181
0.001032729
0.001030898
0.001027496
0.001026058
0.001025145
0.001024463
0.001024305
0.001024078
0.001024183
0.001023075
0.001023208
0.001022984
0.001059668
0.001007491
0.001020221
0.001018974
0.001021709
0.001027628
0.001029941
0.001028301
0.001025653
0.001024648
0.001023649
0.001023104
0.001023054
0.00102298
0.001023173
0.001022128
0.001022346
0.001022195
0.001062944
0.001005699
0.001018837
0.001018567
0.00102172
0.001026566
0.001027707
0.001026223
0.001024195
0.001023234
0.001022317
0.001021897
0.001021923
0.001021921
0.001022189
0.001021208
0.0010215
0.001021408
0.001078123
0.001004882
0.001021443
0.00101914
0.001021989
0.001025873
0.001026071
0.001024427
0.001022705
0.001021916
0.001021148
0.001020805
0.00102086
0.001020895
0.00102123
0.001020317
0.001020667
0.00102063
0.001081555
0.001005119
0.001022735
0.001019904
0.001022482
0.001025348
0.001024379
0.001022821
0.001021315
0.001020721
0.001020033
0.001019768
0.001019834
0.001019918
0.001020288
0.001019459
0.001019851
0.001019865
0.001087088
0.001005106
0.001024205
0.00102078
0.001022894
0.001024445
0.001022846
0.001021308
0.001020033
0.001019538
0.001018934
0.001018782
0.001018866
0.001018984
0.001019338
0.001018648
0.001019052
0.001019109
0.001093279
0.001004944
0.001022532
0.001019803
0.001022231
0.001023227
0.001021191
0.001019838
0.001018745
0.001018361
0.001017888
0.001017839
0.001017941
0.001018099
0.001018341
0.001017904
0.001018262
0.001018363
0.001100019
0.001004687
0.001020039
0.001021324
0.001021088
0.001020522
0.001019355
0.001018377
0.001017449
0.001017207
0.001016908
0.001016925
0.001017042
0.001017233
0.001017366
0.001017192
0.001017483
0.001017631
0.00110685
0.001004457
0.001016842
0.00102039
0.001019608
0.001019248
0.001017577
0.001016868
0.001016203
0.001016121
0.001015981
0.001016034
0.001016162
0.001016308
0.001016394
0.00101659
0.001016756
0.001016907
0.001113742
0.001004223
0.001014645
0.001018716
0.001018593
0.001016504
0.001016201
0.001015586
0.001015004
0.001015117
0.001015085
0.001015169
0.001015326
0.001015503
0.001015562
0.001015964
0.001015989
0.001016194
0.001120979
0.001004038
0.001013094
0.001017173
0.001016992
0.001015575
0.001014337
0.001014285
0.001013975
0.001014198
0.001014218
0.001014329
0.001014509
0.001014714
0.001014833
0.001015138
0.001015272
0.001015505
0.001128756
0.001003835
0.001011733
0.001015677
0.001015383
0.001014001
0.001013454
0.00101295
0.00101305
0.001013332
0.001013374
0.001013516
0.001013719
0.001013961
0.001014027
0.001014411
0.001014568
0.001014813
0.001137092
0.001003649
0.001010582
0.001014204
0.001013837
0.00101256
0.001012203
0.001012054
0.001012113
0.001012463
0.001012588
0.001012727
0.001012961
0.001013297
0.001013227
0.001013675
0.001013875
0.00101414
0.001146215
0.001003484
0.001009627
0.001012862
0.001012355
0.00101135
0.001011128
0.001011256
0.001011197
0.001011582
0.001011793
0.001012001
0.001012214
0.001012751
0.001012477
0.001013058
0.001013218
0.001013489
0.001155874
0.001003327
0.001008782
0.001011646
0.001010845
0.001010285
0.001010192
0.001010342
0.001010379
0.001010762
0.00101103
0.00101127
0.001011542
0.001012347
0.001011616
0.001012202
0.001012536
0.001012856
0.001166428
0.001003176
0.00100807
0.001010675
0.001009256
0.001009332
0.001009368
0.00100946
0.00100967
0.001010026
0.001010279
0.001010558
0.001010881
0.001011386
0.001011019
0.001011657
0.001011886
0.001012243
0.001177911
0.001003022
0.001007438
0.001010148
0.001007599
0.001008604
0.001008573
0.00100865
0.00100908
0.001009319
0.001009589
0.001009864
0.001010216
0.001010505
0.001010497
0.001010974
0.001011279
0.001011733
0.001190261
0.001002855
0.001006698
0.001009956
0.001006254
0.001008076
0.001007848
0.001007898
0.001008611
0.001008608
0.001008917
0.001009203
0.001009558
0.00100973
0.001010073
0.001010398
0.00101068
0.001011174
0.001203934
0.001002654
0.001005551
0.001010157
0.001005938
0.001006875
0.001007083
0.00100724
0.001007899
0.001007895
0.001008279
0.001008603
0.001008953
0.001009082
0.001009541
0.001009758
0.001010117
0.001010928
0.001218908
0.00100242
0.001004414
0.001009783
0.001006094
0.001005628
0.001006325
0.001006336
0.001007186
0.001007466
0.001007761
0.001008059
0.001008443
0.001008492
0.001008884
0.00100918
0.001009584
0.001009876
0.001235174
0.001002153
0.001003909
0.001006018
0.001006344
0.001005391
0.001005771
0.001006018
0.001006485
0.001006988
0.001007268
0.001007533
0.001007998
0.001007867
0.001008363
0.001008623
0.001009017
0.001008975
0.001253689
0.001002208
0.001003985
0.001003583
0.001006669
0.001005017
0.001005369
0.001005566
0.001006031
0.001006534
0.001006823
0.001007056
0.001007324
0.001007414
0.001007692
0.001008076
0.001008665
0.001008453
0.001277251
0.001001759
0.001002838
0.001002941
0.001003812
0.001005574
0.001005203
0.001005267
0.00100608
0.001006137
0.00100636
0.00100657
0.001006796
0.001006913
0.001007217
0.001007584
0.001007653
0.001008142
0.001344379
0.001001473
0.001002483
0.001003093
0.00100301
0.001005134
0.00100496
0.001005731
0.001005606
0.001005439
0.001005793
0.001006067
0.001006141
0.001006477
0.001006739
0.001007041
0.001006823
0.001007906
0.001396047
0.001001172
0.001002181
0.001002893
0.001003408
0.001004175
0.001004564
0.001005069
0.001004874
0.00100517
0.001005346
0.001005566
0.00100546
0.001006106
0.001006224
0.001006756
0.001006591
0.001007162
0.001499079
0.001000773
0.001002144
0.001002431
0.001003051
0.001003898
0.001004333
0.001004651
0.001004676
0.001004752
0.001004884
0.001005115
0.001005137
0.001005539
0.001005827
0.001005961
0.001006175
0.001006724
0.002085863
0.001000446
0.001002108
0.001002255
0.001003021
0.001003864
0.001004135
0.001004252
0.001004262
0.001004332
0.001004437
0.0010044
0.00100471
0.00100488
0.00100521
0.001005155
0.001005886
0.001006131
0.003565764
0.001000543
0.001001934
0.001002943
0.001003678
0.001003955
0.001003901
0.001003889
0.001003869
0.001003896
0.001004
0.001003992
0.001004344
0.001004429
0.001004492
0.001004903
0.001005288
0.001005637
0.0368053
0.001001193
0.001001059
0.001002305
0.00100359
0.001003658
0.001003552
0.001003512
0.001003454
0.001003487
0.001003589
0.001003532
0.00100391
0.001004053
0.001004151
0.001004558
0.001004766
0.0010051
0.0368053
0.001001384
0.001001465
0.001002625
0.001003154
0.001003303
0.001003099
0.001003094
0.001003052
0.001003115
0.001003207
0.001003231
0.001003494
0.001003784
0.001003754
0.00100399
0.001004334
0.001004627
0.0368053
0.001001725
0.001001736
0.001002672
0.001002808
0.001002837
0.001002648
0.001002661
0.001002683
0.001002733
0.00100267
0.001002975
0.001003061
0.001003281
0.001003311
0.00100369
0.001003957
0.001004242
0.0368053
0.001001012
0.001001363
0.001002356
0.001002279
0.001002348
0.00100231
0.001002312
0.001002334
0.00100241
0.001002386
0.001002719
0.001002727
0.001002846
0.001002996
0.00100333
0.001003596
0.001003824
0.0368053
0.001003067
0.001001776
0.001002507
0.001002016
0.00100196
0.001002018
0.001002014
0.001002022
0.001002091
0.001002021
0.001002405
0.001002275
0.001002671
0.001002739
0.001003024
0.001003213
0.001003522
0.0368053
0.001001975
0.001002802
0.001002693
0.001002139
0.001001747
0.001001756
0.001001749
0.001001752
0.001001929
0.00100186
0.001001958
0.001001974
0.001002456
0.001002498
0.001002694
0.001002939
0.001003188
0.0368053
0.00100212
0.001002986
0.001002607
0.001001937
0.001001515
0.001001495
0.001001482
0.001001471
0.001001562
0.001001586
0.001001662
0.001001947
0.001002022
0.001002183
0.001002463
0.001002672
0.001003025
0.0368053
0.001001594
0.001001812
0.001002625
0.001001427
0.001001372
0.001001251
0.001001251
0.001001243
0.0010013
0.001001422
0.001001456
0.001001711
0.001001735
0.001002025
0.001002189
0.001002419
0.001002698
0.0368053
0.001033998
0.001001486
0.001002467
0.001001135
0.001001102
0.001001043
0.001001022
0.001001027
0.001001129
0.001001142
0.001001221
0.001001441
0.001001594
0.001001748
0.001001999
0.001002135
0.001002497
0.0368053
0.001152135
0.001001778
0.001000598
0.001000905
0.001000861
0.001000843
0.001000809
0.001000797
0.001000919
0.001000918
0.001001049
0.001001256
0.001001343
0.001001545
0.001001721
0.001002014
0.001002288
0.0368053
0.001593985
0.001003267
0.001000468
0.001000732
0.001000743
0.00100084
0.001000902
0.00100103
0.001001183
0.00100136
0.001001603
0.001001819
0.001002177
0.0368053
0.0368053
0.001000543
0.001000824
0.001000838
0.00100106
0.001001206
0.001001463
0.001001587
0.00100202
0.0368053
0.001000524
0.001000807
0.001000889
0.001001094
0.00100128
0.001001493
0.001001856
0.001000673
0.001000781
0.001000981
0.001001213
0.001001378
0.001001752
0.001000688
0.001000868
0.001001111
0.001001379
0.001001625
0.001000757
0.001000816
0.001001077
0.001001312
0.001001561
0.001000649
0.001000784
0.001001015
0.001001262
0.001001529
0.00100062
0.001000775
0.001000996
0.001001257
0.001001512
0.001000643
0.0010008
0.001001004
0.001001282
0.001001519
0.001000676
0.001000847
0.001001065
0.001001326
0.001001586
0.001000608
0.001000686
0.00100091
0.001001104
0.001001443
0.001001675
0.0368053
0.00100077
0.001000729
0.001001017
0.001001252
0.001001455
0.001001818
0.0368053
0.0368053
0.0010007
0.001000827
0.001000913
0.001001094
0.001001357
0.001001552
0.001001936
0.0368053
0.002189394
0.001005222
0.001000545
0.001000653
0.00100083
0.001000945
0.001001161
0.001001212
0.001001562
0.001001672
0.001002031
0.0368053
0.00133383
0.001001799
0.001001279
0.001000908
0.001000808
0.001000729
0.001000685
0.001000795
0.001000753
0.001000919
0.001000935
0.001001095
0.001001259
0.001001421
0.001001709
0.001001895
0.001002273
0.0368053
0.001081834
0.001001112
0.001000797
0.001000765
0.00100088
0.001000882
0.001000854
0.001001003
0.001000935
0.001001059
0.001001133
0.001001273
0.001001454
0.001001632
0.001001887
0.001002089
0.00100244
0.0368053
0.001025346
0.001000504
0.001000823
0.00100097
0.001000966
0.001001051
0.001001092
0.001001122
0.001001137
0.001001258
0.00100139
0.001001518
0.001001638
0.001001912
0.001002049
0.001002385
0.001002557
0.0368053
0.001005589
0.001000859
0.001000736
0.001000994
0.00100121
0.001001214
0.001001285
0.001001321
0.001001382
0.001001491
0.001001516
0.001001816
0.001001932
0.001002068
0.001002341
0.001002537
0.001002965
0.0368053
0.001004827
0.001001331
0.001001056
0.00100133
0.001001443
0.001001447
0.001001509
0.001001554
0.001001631
0.001001842
0.001001717
0.001001988
0.001002184
0.001002356
0.00100256
0.001002922
0.001003157
0.0368053
0.001002817
0.001001707
0.001001287
0.001001436
0.001001558
0.001001683
0.00100175
0.001001829
0.001001898
0.001001951
0.001002098
0.001002309
0.001002434
0.001002679
0.00100285
0.001003088
0.001003607
0.0368053
0.001003594
0.001001321
0.001001554
0.001001832
0.001001808
0.001001942
0.001002013
0.001002075
0.001002125
0.001002159
0.001002358
0.001002559
0.001002786
0.001002992
0.001003227
0.001003413
0.001003836
0.0368053
0.001006077
0.001001478
0.001002256
0.001002332
0.001002375
0.001002232
0.001002296
0.001002364
0.001002448
0.001002524
0.001002779
0.001002813
0.001003225
0.001003243
0.001003487
0.001003791
0.001004049
0.0368053
0.001012523
0.00100274
0.001002928
0.001002973