/*--------------------------------*- C++ -*----------------------------------*\
| =========                 |                                                 |
| \\      /  F ield         | OpenFOAM: The Open Source CFD Toolbox           |
|  \\    /   O peration     | Version:  2206                                  |
|   \\  /    A nd           | Website:  www.openfoam.com                      |
|    \\/     M anipulation  |                                                 |
\*---------------------------------------------------------------------------*/
FoamFile
{
    version     2.0;
    format      ascii;
    arch        "LSB;label=32;scalar=64";
    class       volScalarField;
    location    "2.4";
    object      muI;
}
// * * * * * * * * * * * * * * * * * * * * * * * * * * * * * * * * * * * * * //

dimensions      [0 0 0 0 0 0 0];

internalField   nonuniform List<scalar> 
13078
(
0.6302598
0.6300142
0.6300016
0.6300006
0.6300003
0.6300002
0.6300002
0.630009
0.6300025
0.6300011
0.6300005
0.6300003
0.6300002
0.6300002
0.6300017
0.630001
0.6300005
0.6300003
0.6300002
0.6300002
0.6300002
0.6300005
0.6300004
0.6300003
0.6300002
0.6300002
0.6300001
0.6300001
0.6300002
0.6300002
0.6300002
0.6300002
0.6300001
0.6300001
0.6300001
0.6300001
0.6300001
0.6300001
0.6300001
0.6300001
0.6300001
0.6300001
0.6300001
0.6300001
0.6300001
0.6300001
0.6300001
0.6300001
0.6300001
0.6300001
0.63
0.63
0.63
0.63
0.6300001
0.6300001
0.63
0.63
0.63
0.63
0.63
0.63
0.63
0.63
0.63
0.63
0.63
0.63
0.63
0.63
0.63
0.63
0.63
0.63
0.63
0.63
0.63
0.63
0.63
0.63
0.63
0.63
0.63
0.63
0.63
0.63
0.63
0.63
0.63
0.63
0.63
0.63
0.63
0.63
0.63
0.63
0.63
0.63
0.63
0.63
0.63
0.63
0.63
0.63
0.63
0.63
0.63
0.63
0.63
0.63
0.63
0.63
0.63
0.63
0.63
0.63
0.63
0.63
0.6300001
0.63
0.63
0.63
0.63
0.63
0.63
0.6300001
0.63
0.63
0.63
0.63
0.63
0.6300001
0.6300001
0.63
0.63
0.63
0.63
0.6300001
0.6300001
0.6300001
0.63
0.63
0.63
0.6300001
0.6300001
0.6300001
0.6300001
0.63
0.6300001
0.6300001
0.6300001
0.6300001
0.6300001
0.6300001
0.63
0.6300001
0.6300001
0.6300001
0.6300001
0.6300001
0.6300001
0.63
0.6300001
0.6300001
0.6300001
0.6300001
0.6300001
0.6300001
0.6300001
0.6300001
0.6300001
0.6300001
0.6300001
0.6300001
0.6300001
0.6300001
0.6300001
0.6300001
0.6300001
0.6300001
0.6300001
0.6300001
0.6300001
0.6300001
0.6300001
0.6300001
0.6300001
0.6300001
0.6300001
0.6300001
0.6300001
0.6300001
0.6300001
0.6300001
0.6300001
0.6300001
0.6300001
0.6300001
0.6300001
0.6300001
0.6300001
0.6300002
0.6300002
0.6300001
0.6300001
0.6300001
0.6300002
0.6300002
0.6300002
0.6300002
0.6300001
0.6300002
0.6300002
0.6300002
0.6300002
0.6300002
0.6300002
0.6300001
0.6300002
0.6300002
0.6300002
0.6300002
0.6300002
0.6300002
0.6300002
0.6300002
0.6300002
0.6300002
0.6300002
0.6300003
0.6300003
0.6300002
0.6300002
0.6300002
0.6300003
0.6300003
0.6300003
0.6300003
0.6300002
0.6300003
0.6300003
0.6300003
0.6300003
0.6300003
0.6300004
0.6300003
0.6300003
0.6300003
0.6300003
0.6300004
0.6300004
0.6300005
0.6300003
0.6300003
0.6300004
0.6300004
0.6300004
0.6300005
0.6300006
0.6300004
0.6300004
0.6300004
0.6300004
0.6300005
0.6300007
0.630001
0.6300004
0.6300004
0.6300005
0.6300005
0.6300006
0.6300009
0.6300015
0.6300005
0.6300005
0.6300005
0.6300006
0.6300008
0.6300012
0.630002
0.6300005
0.6300005
0.6300006
0.6300007
0.630001
0.6300015
0.6300024
0.6300006
0.6300006
0.6300006
0.6300008
0.6300011
0.6300016
0.6300026
0.6300006
0.6300006
0.6300007
0.6300008
0.6300011
0.6300017
0.6300027
0.6300006
0.6300006
0.6300007
0.6300009
0.6300012
0.6300017
0.6300027
0.6300006
0.6300006
0.6300007
0.6300009
0.6300012
0.6300017
0.6300027
0.6300005
0.6300006
0.6300006
0.6300009
0.6300013
0.6300018
0.6300028
0.6300005
0.6300005
0.6300006
0.6300008
0.6300013
0.6300019
0.6300031
0.6300005
0.6300005
0.6300006
0.6300008
0.6300013
0.6300021
0.6300036
0.6300005
0.6300005
0.6300005
0.6300008
0.6300014
0.6300025
0.6300045
0.6300005
0.6300005
0.6300006
0.6300009
0.6300017
0.6300032
0.6300056
0.6300005
0.6300005
0.6300006
0.6300011
0.6300022
0.6300041
0.630007
0.6300005
0.6300006
0.6300008
0.6300014
0.6300028
0.6300049
0.630008
0.6300005
0.6300006
0.630001
0.6300018
0.6300032
0.6300051
0.6300084
0.6300006
0.6300007
0.6300012
0.6300021
0.6300034
0.630005
0.6300076
0.6300006
0.6300008
0.6300014
0.6300023
0.6300034
0.6300048
0.6300066
0.6300006
0.6300009
0.6300015
0.6300023
0.6300033
0.6300045
0.630006
0.6300007
0.630001
0.6300016
0.6300023
0.6300032
0.6300043
0.6300058
0.6300007
0.6300011
0.6300016
0.6300023
0.6300031
0.6300042
0.6300058
0.6300008
0.6300012
0.6300016
0.6300022
0.6300029
0.630004
0.6300059
0.6300009
0.6300012
0.6300015
0.630002
0.6300027
0.6300037
0.6300056
0.630001
0.6300012
0.6300014
0.6300018
0.6300024
0.6300034
0.6300051
0.6300011
0.6300013
0.6300014
0.6300016
0.6300021
0.6300031
0.6300046
0.6300012
0.6300013
0.6300013
0.6300015
0.6300019
0.6300028
0.6300044
0.6300012
0.6300013
0.6300012
0.6300013
0.6300017
0.6300026
0.6300044
0.6300011
0.6300012
0.6300012
0.6300012
0.6300015
0.6300023
0.6300041
0.630001
0.6300012
0.6300012
0.6300012
0.6300013
0.630002
0.6300036
0.6300008
0.630001
0.6300011
0.6300012
0.6300012
0.6300016
0.6300031
0.6300007
0.6300009
0.630001
0.6300011
0.6300012
0.6300014
0.6300025
0.6300006
0.6300007
0.6300009
0.630001
0.6300012
0.6300013
0.6300019
0.6300005
0.6300006
0.6300007
0.6300008
0.630001
0.6300012
0.6300016
0.6300004
0.6300005
0.6300005
0.6300006
0.6300008
0.630001
0.6300014
0.6300004
0.6300004
0.6300005
0.6300005
0.6300006
0.6300008
0.630001
0.6300003
0.6300004
0.6300004
0.6300004
0.6300004
0.6300005
0.6300007
0.6300003
0.6300003
0.6300003
0.6300004
0.6300004
0.6300004
0.6300004
0.6300002
0.6300003
0.6300003
0.6300003
0.6300003
0.6300003
0.6300003
0.6300002
0.6300002
0.6300003
0.6300003
0.6300003
0.6300003
0.6300003
0.6300002
0.6300002
0.6300002
0.6300002
0.6300002
0.6300002
0.6300003
0.6300002
0.6300002
0.6300002
0.6300002
0.6300002
0.6300002
0.6300002
0.6300001
0.6300002
0.6300002
0.6300002
0.6300002
0.6300002
0.6300002
0.6300001
0.6300001
0.6300002
0.6300002
0.6300002
0.6300002
0.6300002
0.6300001
0.6300001
0.6300001
0.6300001
0.6300002
0.6300002
0.6300002
0.6300001
0.6300001
0.6300001
0.6300001
0.6300001
0.6300001
0.6300002
0.6300001
0.6300001
0.6300001
0.6300001
0.6300001
0.6300001
0.6300001
0.6300001
0.6300001
0.6300001
0.6300001
0.6300001
0.6300001
0.6300001
0.6300001
0.6300001
0.6300001
0.6300001
0.6300001
0.6300001
0.6300001
0.63
0.6300001
0.6300001
0.6300001
0.6300001
0.6300001
0.6300001
0.63
0.6300001
0.6300001
0.6300001
0.6300001
0.6300001
0.6300001
0.63
0.6300001
0.6300001
0.6300001
0.6300001
0.6300001
0.6300001
0.63
0.6300001
0.6300001
0.6300001
0.6300001
0.6300001
0.6300001
0.63
0.63
0.63
0.6300001
0.6300001
0.6300001
0.6300001
0.63
0.63
0.63
0.63
0.6300001
0.6300001
0.6300001
0.63
0.63
0.63
0.63
0.63
0.6300001
0.6300001
0.63
0.63
0.63
0.63
0.63
0.6300001
0.6300001
0.63
0.63
0.63
0.63
0.63
0.63
0.6300001
0.63
0.63
0.63
0.63
0.63
0.63
0.6300001
0.63
0.63
0.63
0.63
0.63
0.63
0.63
0.63
0.63
0.63
0.63
0.63
0.63
0.63
0.63
0.63
0.63
0.63
0.63
0.63
0.63
0.63
0.63
0.63
0.63
0.63
0.63
0.63
0.63
0.63
0.63
0.63
0.63
0.63
0.63
0.63
0.63
0.63
0.63
0.63
0.63
0.63
0.63
0.63
0.63
0.63
0.63
0.63
0.63
0.63
0.63
0.63
0.63
0.63
0.63
0.63
0.63
0.63
0.63
0.63
0.63
0.63
0.63
0.63
0.63
0.63
0.63
0.63
0.63
0.63
0.6300001
0.63
0.6300001
0.63
0.6300001
0.6300001
0.6300001
0.6300001
0.6300001
0.6300001
0.6300001
0.6300001
0.6300001
0.6300001
0.6300001
0.6300001
0.6300001
0.6300001
0.6300001
0.6300001
0.6300001
0.6300002
0.6300002
0.6300002
0.6300002
0.6300001
0.6300001
0.6300001
0.6300005
0.6300004
0.6300003
0.6300002
0.6300002
0.6300001
0.6300001
0.6300016
0.630001
0.6300005
0.6300003
0.6300002
0.6300002
0.6300001
0.6300077
0.6300023
0.6300011
0.6300005
0.6300003
0.6300002
0.6300002
0.6300001
0.6300001
0.6300001
0.6300001
0.6300001
0.63
0.6300001
0.6300001
0.6300001
0.6300001
0.6300001
0.6300001
0.63
0.6300001
0.6300001
0.6300001
0.6300001
0.6300001
0.6300001
0.6300001
0.6300001
0.6300001
0.6300001
0.6300001
0.6300001
0.6300001
0.6300001
0.6300001
0.6300001
0.6300001
0.6300001
0.6300001
0.6300001
0.6300001
0.6300001
0.6300001
0.6300001
0.6300001
0.6300001
0.6300001
0.6300001
0.6300001
0.6300001
0.6300001
0.6300001
0.6300001
0.6300001
0.6300001
0.6300001
0.6300001
0.6300001
0.6300001
0.6300001
0.6300001
0.6300001
0.6300001
0.6300001
0.6300001
0.6300001
0.6300001
0.6300001
0.6300001
0.6300001
0.6300001
0.6300001
0.6300001
0.6300001
0.6300001
0.6300001
0.6300001
0.63
0.6300001
0.6300001
0.6300001
0.6300001
0.6300001
0.6300001
0.63
0.6300001
0.6300001
0.6300001
0.6300001
0.6300001
0.6300001
0.63
0.6300001
0.6300001
0.6300001
0.6300001
0.6300001
0.6300001
0.63
0.6300001
0.6300001
0.6300001
0.6300001
0.6300001
0.6300001
0.6300001
0.6300001
0.6300001
0.6300001
0.6300001
0.6300001
0.6300001
0.6300001
0.6300001
0.6300001
0.6300001
0.6300001
0.6300001
0.6300001
0.6300001
0.6300001
0.6300001
0.6300001
0.6300001
0.6300001
0.6300001
0.6300001
0.6300001
0.6300001
0.6300001
0.6300001
0.6300001
0.6300002
0.6300001
0.6300001
0.6300001
0.6300001
0.6300001
0.6300001
0.6300002
0.6300001
0.6300001
0.6300001
0.6300001
0.6300001
0.6300001
0.6300002
0.6300001
0.6300001
0.6300001
0.6300001
0.6300001
0.6300001
0.6300002
0.6300001
0.6300001
0.6300001
0.6300001
0.6300001
0.6300001
0.6300002
0.6300001
0.6300001
0.6300001
0.6300001
0.6300001
0.6300001
0.6300003
0.6300001
0.6300001
0.6300001
0.6300001
0.6300001
0.6300001
0.6300003
0.6300001
0.6300001
0.6300001
0.6300001
0.6300001
0.6300002
0.6300003
0.6300001
0.6300001
0.6300001
0.6300001
0.6300001
0.6300002
0.6300004
0.6300001
0.6300001
0.6300002
0.6300001
0.6300002
0.6300002
0.6300004
0.6300002
0.6300002
0.6300002
0.6300002
0.6300002
0.6300002
0.6300005
0.6300002
0.6300002
0.6300002
0.6300002
0.6300002
0.6300002
0.6300006
0.6300002
0.6300002
0.6300002
0.6300002
0.6300002
0.6300003
0.6300006
0.6300002
0.6300002
0.6300002
0.6300002
0.6300003
0.6300003
0.6300008
0.6300003
0.6300002
0.6300003
0.6300003
0.6300003
0.6300004
0.630001
0.6300003
0.6300003
0.6300003
0.6300003
0.6300004
0.6300005
0.6300013
0.6300003
0.6300003
0.6300003
0.6300004
0.6300005
0.6300008
0.6300019
0.6300004
0.6300004
0.6300005
0.6300007
0.6300009
0.6300012
0.6300022
0.6300006
0.6300007
0.6300009
0.6300011
0.6300012
0.6300014
0.6300026
0.630001
0.6300011
0.6300015
0.6300016
0.6300012
0.6300011
0.6300021
0.6300016
0.6300018
0.6300023
0.6300021
0.6300021
0.6300029
0.6300077
0.6300023
0.6300028
0.6300038
0.6300043
0.630006
0.6300095
0.630013
0.6300034
0.6300044
0.6300063
0.6300075
0.6300091
0.6300095
0.6300057
0.6300043
0.6300058
0.630008
0.6300081
0.6300062
0.6300031
0.6300017
0.6300046
0.6300067
0.6300084
0.6300071
0.6300043
0.6300036
0.6300038
0.6300048
0.6300069
0.6300078
0.6300058
0.6300029
0.6300061
0.630011
0.630005
0.6300072
0.630007
0.6300041
0.6300011
0.6300139
0.6300292
0.6300049
0.6300071
0.6300061
0.6300025
0.630003
0.6300262
0.6300385
0.6300047
0.6300066
0.6300053
0.6300032
0.6300144
0.6300303
0.6300241
0.630005
0.6300063
0.6300051
0.6300077
0.6300281
0.6300188
0.630004
0.6300056
0.6300065
0.6300063
0.6300137
0.6300371
0.6300177
0.6300244
0.630007
0.6300074
0.6300075
0.6300182
0.6300595
0.6300352
0.6300169
0.630009
0.6300095
0.6300086
0.6300244
0.630076
0.6300519
0.6300175
0.630011
0.6300113
0.6300081
0.6300337
0.6300681
0.6300371
0.6300268
0.630013
0.6300137
0.6300077
0.6300486
0.630067
0.6300241
0.6300186
0.6300146
0.6300183
0.6300055
0.6300619
0.6300553
0.630023
0.6300356
0.6300125
0.6300169
0.6300071
0.6300546
0.6300366
0.6300254
0.6300607
0.6300099
0.6300122
0.6300143
0.6300233
0.6300247
0.6300695
0.6301874
0.6300085
0.6300107
0.630014
0.6300165
0.6300378
0.6301538
0.630008
0.6300095
0.6300132
0.6300186
0.630057
0.6301383
0.6300079
0.6300079
0.6300152
0.6300301
0.6300519
0.6301073
0.6300082
0.6300068
0.6300168
0.6300409
0.6300394
0.6300367
0.6300892
0.6300085
0.6300079
0.6300148
0.6300433
0.6300334
0.6300296
0.6300271
0.6300081
0.6300091
0.630015
0.6300574
0.6300447
0.6300379
0.6300112
0.6300071
0.6300084
0.6300203
0.6300887
0.6300754
0.6300506
0.6300201
0.6300067
0.6300064
0.6300253
0.6301049
0.6301076
0.6300999
0.630018
0.6300066
0.630006
0.6300202
0.6301081
0.6301199
0.6301073
0.6300236
0.6300066
0.6300063
0.6300133
0.6301158
0.6300848
0.6300267
0.630044
0.6300065
0.6300067
0.6300069
0.6300998
0.6300664
0.6300105
0.6300403
0.6300061
0.6300072
0.6300036
0.630064
0.630068
0.6300154
0.6300039
0.6300051
0.6300072
0.630003
0.6300438
0.6300412
0.630032
0.6300179
0.630004
0.6300063
0.6300029
0.6300303
0.6300311
0.6300205
0.6300154
0.6300029
0.6300048
0.6300029
0.6300205
0.6300341
0.6300188
0.6300311
0.6300021
0.6300035
0.6300024
0.630012
0.6300354
0.63002
0.630031
0.6300017
0.6300026
0.6300019
0.6300052
0.6300279
0.6300233
0.630017
0.6300011
0.6300019
0.6300017
0.6300021
0.6300085
0.6300191
0.6300107
0.6300006
0.6300011
0.6300013
0.6300012
0.6300016
0.6300035
0.6300081
0.6300004
0.6300005
0.6300006
0.6300006
0.6300005
0.6300005
0.6300014
0.6300003
0.6300003
0.6300003
0.6300003
0.6300002
0.6300002
0.6300002
0.6300003
0.6300003
0.6300002
0.6300002
0.6300002
0.6300002
0.6300003
0.6300002
0.6300003
0.6300002
0.6300002
0.6300002
0.6300002
0.6300006
0.6300002
0.6300002
0.6300002
0.6300002
0.6300002
0.6300002
0.6300004
0.6300002
0.6300002
0.6300002
0.6300002
0.6300002
0.6300003
0.6300009
0.6300002
0.6300002
0.6300002
0.6300002
0.6300002
0.6300002
0.6300006
0.6300002
0.6300002
0.6300002
0.6300002
0.6300002
0.6300002
0.6300006
0.6300002
0.6300002
0.6300002
0.6300002
0.6300002
0.6300002
0.6300005
0.6300001
0.6300002
0.6300002
0.6300002
0.6300002
0.6300002
0.6300005
0.6300001
0.6300001
0.6300001
0.6300002
0.6300001
0.6300002
0.6300004
0.6300001
0.6300001
0.6300001
0.6300001
0.6300001
0.6300002
0.6300004
0.6300001
0.6300001
0.6300001
0.6300001
0.6300001
0.6300001
0.6300003
0.6300001
0.6300001
0.6300001
0.6300001
0.6300001
0.6300001
0.6300003
0.6300001
0.6300001
0.6300001
0.6300001
0.6300001
0.6300001
0.6300003
0.6300001
0.6300001
0.6300001
0.6300001
0.6300001
0.6300001
0.6300002
0.6300001
0.6300001
0.6300001
0.6300001
0.6300001
0.6300001
0.6300002
0.6300001
0.6300001
0.6300001
0.6300001
0.6300001
0.6300001
0.6300002
0.6300001
0.6300001
0.6300001
0.6300001
0.6300001
0.6300001
0.6300002
0.6300001
0.6300001
0.6300001
0.6300001
0.6300001
0.6300001
0.6300002
0.6300001
0.6300001
0.6300001
0.6300001
0.6300001
0.6300001
0.6300001
0.6300001
0.6300001
0.6300001
0.6300001
0.6300001
0.6300001
0.6300001
0.6300001
0.6300001
0.6300001
0.6300001
0.6300001
0.6300001
0.6300001
0.6300001
0.6300001
0.6300001
0.6300001
0.6300001
0.6300001
0.6300001
0.63
0.6300001
0.6300001
0.6300001
0.6300001
0.6300001
0.6300001
0.63
0.6300001
0.6300001
0.6300001
0.6300001
0.6300001
0.6300001
0.63
0.6300001
0.6300001
0.6300001
0.6300001
0.6300001
0.6300001
0.63
0.6300001
0.6300001
0.6300001
0.6300001
0.6300001
0.6300001
0.63
0.6300001
0.6300001
0.6300001
0.6300001
0.6300001
0.6300001
0.6300001
0.6300001
0.6300001
0.6300001
0.6300001
0.6300001
0.6300001
0.6300001
0.6300001
0.6300001
0.6300001
0.6300001
0.6300001
0.6300001
0.6300001
0.6300001
0.6300001
0.6300001
0.6300001
0.6300001
0.6300001
0.6300001
0.6300001
0.6300001
0.6300001
0.6300001
0.6300001
0.6300001
0.6300001
0.6300001
0.6300001
0.6300001
0.6300001
0.6300001
0.6300001
0.6300001
0.6300001
0.6300001
0.6300001
0.6300001
0.6300001
0.6300001
0.6300001
0.6300001
0.6300001
0.6300001
0.6300001
0.6300001
0.6300001
0.6300001
0.6300001
0.6300001
0.6300001
0.6300001
0.6300001
0.6300001
0.6300001
0.6300001
0.6300001
0.6300001
0.6300001
0.63
0.6300001
1.125422
1.066275
0.9904295
0.9283096
0.8721386
0.7939132
0.706592
0.7230702
0.7141368
0.7214052
0.7305652
0.7393251
0.7474568
0.754885
0.761235
0.7672238
0.7723733
0.7768934
1.125517
1.01896
0.9476869
0.9064356
0.8628298
0.7847622
0.7046682
0.7158021
0.7121047
0.7244486
0.7330742
0.740739
0.7485262
0.7558038
0.7620615
0.7679702
0.7729942
0.7774333
1.12552
0.9551583
0.8885837
0.8786217
0.8482306
0.7765679
0.6988897
0.708816
0.7107475
0.7288496
0.7365158
0.743668
0.7507122
0.7576321
0.7635255
0.769497
0.7741638
0.7784729
1.125502
0.9315684
0.8524873
0.8591737
0.8371453
0.7716486
0.6980317
0.7048859
0.7106307
0.7326462
0.7412426
0.747857
0.754059
0.7602543
0.765543
0.7718663
0.7759711
0.7800566
1.125493
0.9261198
0.8315614
0.8455645
0.8275911
0.7686472
0.6990926
0.7064868
0.7148352
0.7354071
0.7467622
0.7534022
0.758383
0.7637261
0.7681656
0.7749335
0.7782977
0.7821386
1.125485
0.9292089
0.8163295
0.8356627
0.8204842
0.7667372
0.7026783
0.7148306
0.7219834
0.7385512
0.7524513
0.7583794
0.7634302
0.768192
0.7713892
0.7785319
0.7811596
0.7846505
1.125478
0.9299363
0.8038162
0.8276949
0.8145015
0.7649583
0.7151455
0.723577
0.7299565
0.7441224
0.7566228
0.7643637
0.7689282
0.7728498
0.7754866
0.7823722
0.7844298
0.7876293
1.12547
0.9338088
0.7937083
0.8217699
0.8096353
0.7643319
0.7244524
0.7342865
0.7390146
0.7515193
0.7616089
0.7704007
0.7748223
0.7778733
0.7798887
0.7866487
0.7881427
0.7909522
1.125461
0.9349695
0.7880566
0.8177381
0.8060524
0.7643809
0.73188
0.7487474
0.7491142
0.758328
0.7675481
0.7774525
0.7806222
0.7832804
0.7846897
0.7912352
0.7922095
0.7945874
1.12545
0.9418633
0.7811483
0.8150858
0.8039427
0.7659966
0.7415291
0.7543347
0.7602732
0.7663496
0.7788125
0.7846155
0.7865428
0.7887969
0.7898313
0.7960846
0.7965621
0.7985804
1.125436
0.948991
0.7773764
0.8155056
0.8047068
0.7701921
0.752437
0.7604544
0.7712431
0.7809492
0.7879224
0.7913855
0.7929284
0.7949668
0.7950813
0.8013665
0.8011002
0.802788
1.125426
0.9569731
0.7803617
0.8217289
0.809073
0.7769818
0.7636637
0.7702385
0.7842168
0.7909347
0.7954831
0.7990436
0.7998852
0.80111
0.8005429
0.8067301
0.8059636
0.8072541
1.125418
0.9640138
0.8247017
0.8336219
0.8149432
0.7836279
0.7739225
0.780678
0.7929235
0.7980599
0.8034757
0.8065606
0.8068537
0.8072799
0.806165
0.8123499
0.8110262
0.8119449
1.125385
0.9960557
0.8346408
0.8366894
0.814876
0.788497
0.7832726
0.7901321
0.8004769
0.8058172
0.8112057
0.8137701
0.8136109
0.8136248
0.811981
0.8181277
0.8162597
0.8168448
1.12529
1.012127
0.8166205
0.832388
0.8132007
0.7918375
0.7908696
0.799235
0.8088867
0.8136522
0.8185187
0.8207623
0.8203984
0.8201709
0.8179867
0.8240479
0.8216801
0.8219288
1.125376
1.007371
0.8087143
0.826903
0.8102146
0.7944541
0.799491
0.808205
0.817442
0.8213223
0.8260053
0.827859
0.8273936
0.8268081
0.824248
0.8300702
0.8272728
0.8271763
1.125355
1.007631
0.8004215
0.8209289
0.8077799
0.799135
0.8080609
0.8174841
0.8260048
0.8295015
0.8339179
0.8350596
0.834428
0.8335426
0.8309442
0.8360702
0.8330405
0.8326193
1.125333
1.01089
0.8099154
0.8276116
0.8117231
0.8058551
0.8182366
0.8273702
0.8353315
0.8382734
0.8419877
0.8423807
0.8415649
0.8403144
0.8384261
0.8418625
0.8390414
0.8382534
1.125307
1.01611
0.8259637
0.8173813
0.8189088
0.8226541
0.8308173
0.8381496
0.8455442
0.8475481
0.8500733
0.8499275
0.8489326
0.8473375
0.8462336
0.8476729
0.845267
0.8440586
1.125281
1.02088
0.8506389
0.8235513
0.8289988
0.831597
0.8444968
0.8504189
0.8562252
0.8569634
0.8582222
0.8577441
0.8565942
0.8552915
0.8545328
0.8528125
0.8513724
0.8500823
1.125253
1.02581
0.8709197
0.8355525
0.8364846
0.8535645
0.8562456
0.8618559
0.8673959
0.8663043
0.8666066
0.8658014
0.8643091
0.8626346
0.8620876
0.858382
0.858154
0.8563041
1.125223
1.029768
0.8872301
0.8478329
0.8493613
0.8619649
0.8740172
0.8745523
0.8777475
0.8754384
0.875232
0.8741051
0.8722793
0.8702372
0.869067
0.8660989
0.8648166
0.8626188
1.12519
1.034181
0.9030977
0.8610157
0.8637687
0.8774778
0.883278
0.8888312
0.8877148
0.8846111
0.8841519
0.8826139
0.8804393
0.8778996
0.8772117
0.873272
0.8716883
0.8692657
1.125154
1.038267
0.9177919
0.8753769
0.8791923
0.89327
0.8974454
0.8992135
0.898508
0.8943924
0.8929465
0.8913586
0.88871
0.884995
0.8857542
0.8809061
0.8787963
0.8760386
1.125114
1.041946
0.9309735
0.8898216
0.8956553
0.9078541
0.9106677
0.9090465
0.9097909
0.9049601
0.9023725
0.8998491
0.8973154
0.8910797
0.8942336
0.8876345
0.8858639
0.882907
1.12507
1.045502
0.9434166
0.9041725
0.9143237
0.9217957
0.9230637
0.9210225
0.9205193
0.9154158
0.9119259
0.9088694
0.9054567
0.8957521
0.9045355
0.8974569
0.8935481
0.8898905
1.125022
1.048948
0.954533
0.9165621
0.9363473
0.9352316
0.9347009
0.9333681
0.930357
0.9253502
0.9218826
0.9181246
0.9138643
0.9074063
0.9120702
0.9040295
0.9012387
0.896967
1.124968
1.052497
0.9649036
0.9236637
0.9622248
0.9461507
0.9466211
0.945443
0.9389434
0.9354121
0.9315107
0.9276159
0.9227324
0.9188241
0.9189371
0.9126541
0.908756
0.9031016
1.124909
1.056423
0.9776844
0.9263295
0.9856896
0.9544395
0.95813
0.9573108
0.9460368
0.946088
0.9413802
0.9371193
0.9319611
0.9295
0.9246968
0.9202705
0.916493
0.9100808
1.12484
1.061168
0.9989066
0.9235471
0.9915364
0.9745635
0.9709379
0.9682595
0.9572989
0.9573562
0.9512156
0.9461552
0.9408354
0.9389136
0.9322049
0.9291133
0.9240933
0.9132532
1.124756
1.066789
1.021764
0.928753
0.9886254
0.9974187
0.9843912
0.9841874
0.9691684
0.9644291
0.9595495
0.9547172
0.9486361
0.9478789
0.9418792
0.9374601
0.9315875
0.9274493
1.124647
1.073303
1.032544
0.9900389
0.9840348
1.002
0.9946938
0.9900399
0.981483
0.9725867
0.9677716
0.9633121
0.9556885
0.9578086
0.9498949
0.9458598
0.9398827
0.9405143
1.124526
1.072059
1.030902
1.039713
0.9781963
1.009402
1.002431
0.9986166
0.989806
0.9805974
0.9754693
0.9714153
0.9668232
0.9653035
0.9606803
0.9544355
0.9452071
0.9484879
1.124236
1.083444
1.056721
1.054308
1.034666
0.998466
1.0057
1.004447
0.9888955
0.9878372
0.9837547
0.9799599
0.9759516
0.973886
0.968646
0.9624669
0.9613267
0.9533881
1.124116
1.090687
1.065128
1.050789
1.052697
1.00708
1.010561
0.9954518
0.9978386
1.001064
0.9942714
0.9891382
0.9877612
0.9816283
0.9769514
0.9716759
0.9754617
0.9571771
1.123737
1.098539
1.072456
1.055426
1.043623
1.026812
1.018653
1.008364
1.012282
1.006361
1.002891
0.9986075
1.000659
0.9884101
0.9862238
0.9766416
0.9795852
0.9695791
1.123161
1.108983
1.073372
1.066389
1.051764
1.03278
1.02348
1.01685
1.016341
1.014781
1.012097
1.007452
1.007015
0.9991325
0.993622
0.9911073
0.9871335
0.9772084
1.120721
1.117655
1.074258
1.070654
1.052459
1.033524
1.027683
1.025184
1.024964
1.02349
1.021285
1.022067
1.015624
1.012178
1.005569
1.006659
0.9925125
0.9879498
1.11773
1.120843
1.078562
1.054273
1.037598
1.031536
1.032724
1.032977
1.033414
1.03282
1.03058
1.030742
1.023249
1.021451
1.020146
1.011703
1.004019
0.997248
0.672415
1.120554
1.101023
1.069437
1.039547
1.038036
1.040397
1.041296
1.042584
1.041852
1.039576
1.040854
1.032521
1.029423
1.027333
1.018759
1.014477
1.007744
0.6312276
1.123467
1.090441
1.061741
1.04938
1.046005
1.050654
1.05077
1.051742
1.050293
1.048176
1.047631
1.041699
1.035261
1.035919
1.030783
1.023444
1.017343
0.6300803
1.124309
1.083524
1.060626
1.057418
1.056739
1.061198
1.060876
1.060368
1.059172
1.060672
1.053514
1.051526
1.046494
1.045818
1.037345
1.031513
1.025401
0.6300734
1.124285
1.093074
1.068191
1.070058
1.06839
1.0693
1.069259
1.068733
1.0669
1.067467
1.059514
1.059316
1.056524
1.05302
1.045389
1.039418
1.034389
0.6300785
1.124043
1.082527
1.064551
1.076531
1.07792
1.076475
1.076567
1.076385
1.074674
1.076409
1.067014
1.070153
1.060653
1.059032
1.05239
1.048042
1.041058
0.6300854
1.124768
1.057566
1.060134
1.073493
1.083254
1.083022
1.083204
1.083138
1.078698
1.080404
1.077957
1.077565
1.065785
1.064776
1.060107
1.054354
1.048623
0.6300995
1.124571
1.053267
1.062166
1.078496
1.089152
1.08967
1.089995
1.090278
1.087952
1.087352
1.085404
1.07823
1.076386
1.072403
1.065621
1.060632
1.052368
0.6300227
1.12446
1.081651
1.061728
1.091426
1.092828
1.095978
1.095984
1.096182
1.094699
1.09154
1.090674
1.084154
1.083562
1.076312
1.07227
1.066678
1.060014
0.6301339
1.123902
1.090413
1.065509
1.099027
1.099906
1.101452
1.101995
1.101876
1.099175
1.098836
1.096764
1.09106
1.087138
1.083239
1.076958
1.073595
1.064807
0.6300745
1.118902
1.09333
1.113433
1.105116
1.10629
1.106765
1.107688
1.108012
1.104745
1.104768
1.101281
1.095849
1.093584
1.08839
1.083905
1.076565
1.069839
0.6300522
1.118356
1.090499
1.117357
1.109755
1.109456
1.106851
1.105185
1.101792
1.097758
1.093149
1.086903
1.081451
1.072559
0.6300273
0.6312309
1.114904
1.107296
1.106902
1.100989
1.09716
1.090483
1.087324
1.076423
0.6300185
1.115417
1.107732
1.105533
1.100115
1.095232
1.089714
1.080501
1.111363
1.108446
1.103086
1.09698
1.092685
1.083127
1.110945
1.106118
1.099643
1.092655
1.086348
1.109087
1.107494
1.100542
1.094395
1.087969
1.11202
1.108361
1.102199
1.095709
1.088807
1.112789
1.108603
1.102687
1.095831
1.089222
1.112174
1.107924
1.102489
1.095184
1.089058
1.111268
1.106665
1.100872
1.094027
1.087351
1.113121
1.110999
1.104986
1.099849
1.091004
1.085084
0.630078
1.108746
1.109846
1.102151
1.09597
1.090694
1.081462
0.6300803
0.6303268
1.11064
1.107204
1.104916
1.10011
1.093232
1.088216
1.078516
0.6301979
1.113427
1.090536
1.114855
1.111889
1.107132
1.104062
1.098328
1.096997
1.087955
1.085157
1.076141
0.6301736
1.120493
1.113467
1.095737
1.105055
1.107717
1.109847
1.111036
1.108078
1.109203
1.104738
1.104322
1.100082
1.095787
1.091566
1.084219
1.07953
1.070204
0.6303469
1.122612
1.101558
1.108023
1.10888
1.105795
1.10572
1.106478
1.102518
1.104312
1.101028
1.099073
1.095418
1.090714
1.086172
1.079742
1.074721
1.066176
0.6307705
1.123674
1.116157
1.107307
1.1034
1.103495
1.101246
1.100157
1.09936
1.098977
1.095809
1.092362
1.089075
1.08601
1.079122
1.075719
1.067484
1.063351
0.6302162
1.12408
1.106415
1.109667
1.102739
1.097045
1.09694
1.095091
1.094165
1.092592
1.089783
1.089126
1.081521
1.078619
1.075249
1.068562
1.063828
1.053741
0.6301866
1.123772
1.094003
1.101113
1.093931
1.091004
1.090907
1.089311
1.08817
1.086185
1.080863
1.084006
1.077223
1.072375
1.068197
1.063297
1.054749
1.049327
0.6300582
1.123092
1.084305
1.095051
1.091189
1.088053
1.084873
1.083187
1.081189
1.079473
1.078135
1.074501
1.069325
1.066304
1.060463
1.056425
1.050906
1.039181
0.6301131
1.123724
1.09422
1.088162
1.081125
1.08171
1.078367
1.076598
1.075056
1.073826
1.072993
1.06814
1.063312
1.057942
1.05313
1.047727
1.043515
1.034142
0.6305599
1.123232
1.090353
1.070628
1.068766
1.067729
1.071204
1.069647
1.067996
1.065976
1.064147
1.058086
1.057307
1.047776
1.047365
1.041842
1.035122
1.029528
0.6320265
1.121345
1.059669
1.054618
1.053576
1.057928
1.06019
1.061078
1.059827
1.057748
1.057074
1.05213
1.047858
1.038372
1.035071
1.033634
1.027442
1.022974
0.6472288
1.120889
1.052665
1.005848
1.024852
1.043695
1.049598
1.05303
1.051229
1.049727
1.048169
1.041477
1.040969
1.034108
1.031482
1.025933
1.020441
1.013232
1.12061
1.110908
1.048132
1.013219
1.028823
1.038986
1.042175
1.045953
1.042887
1.04091
1.039435
1.032871
1.031848
1.026694
1.022426
1.016948
1.011784
1.005153
1.121756
1.101629
1.021286
1.003725
1.0226
1.037018
1.034441
1.03949
1.034476
1.032127
1.030919
1.026866
1.024145
1.020008
1.016792
1.010575
1.003175
0.9970281
1.124062
1.048066
0.9878359
0.9862803
0.9988117
1.03504
1.024977
1.025864
1.027429
1.025016
1.023139
1.021599
1.016045
1.010054
1.006376
0.9990961
0.9959255
0.9885694
1.124329
1.042623
1.003914
0.9780253
1.022998
1.025303
1.013651
1.008301
1.012381
1.01397
1.01457
1.012307
1.003894
1.00263
0.9976864
0.9899446
0.9828584
0.9819318
1.124531
1.063611
1.010665
1.005283
1.042237
0.9915275
0.996859
1.009581
1.001654
1.004824
1.000892
1.000915
0.9962145
0.9928266
0.9869768
0.9793874
0.9743631
0.9712419
1.124874
1.071319
1.02734
1.042778
0.9890322
1.002212
0.9985527
0.9947646
0.9955367
0.9967932
0.9927469
0.9905603
0.9863606
0.9818091
0.9782499
0.971699
0.9714988
0.9623423
1.124829
1.041625
1.010987
1.030295
0.99573
0.9890802
0.9906264
0.9857279
0.9880708
0.9848328
0.98186
0.9802591
0.975809
0.9721025
0.9696789
0.9645723
0.9614852
0.9538906
1.124857
1.041637
1.000416
1.010948
0.9575229
0.9872082
0.9836121
0.9769992
0.9834806
0.9777487
0.9733136
0.9712845
0.9671075
0.9652908
0.9594029
0.9548892
0.9497779
0.9401895
1.124902
1.041538
0.9831147
0.9877398
0.9616519
0.9800149
0.9741638
0.9683209
0.9657478
0.9692907
0.9647575
0.9619408
0.9592094
0.9550526
0.9513693
0.9458078
0.9402864
0.9336206
1.124947
1.040357
0.9622928
0.9804822
0.9642205
0.9627324
0.9637192
0.9587382
0.9583782
0.9571361
0.9548016
0.9523411
0.9493666
0.9447655
0.9433638
0.9379209
0.933008
0.928111
1.124991
1.038291
0.947537
0.9714364
0.9591442
0.9574356
0.9540854
0.9494769
0.9464446
0.9466181
0.9448674
0.9426122
0.9395657
0.9333661
0.93632
0.928375
0.9245514
0.9180835
1.125032
1.036115
0.933969
0.9649022
0.9508259
0.9499421
0.9453856
0.9401702
0.9369475
0.9366673
0.935093
0.9330507
0.9302442
0.9247843
0.9263745
0.9201198
0.9161745
0.910685
1.12507
1.033902
0.9211947
0.9574104
0.9432855
0.9420855
0.9372209
0.9311296
0.9276777
0.9268219
0.9253741
0.9235387
0.9207211
0.916199
0.9165802
0.9116492
0.9083264
0.9053012
1.125105
1.031621
0.9093479
0.949508
0.936384
0.9337419
0.9286607
0.9231335
0.9182837
0.917134
0.9158319
0.9140736
0.9114781
0.9081282
0.9081483
0.9044374
0.9007704
0.8969129
1.125137
1.029639
0.8968799
0.9416469
0.930483
0.925326
0.920373
0.914967
0.9092093
0.9073354
0.906518
0.9043134
0.902656
0.8981817
0.899969
0.8948836
0.8927088
0.8892146
1.125165
1.027325
0.8869037
0.9342366
0.9247224
0.9170064
0.9119883
0.9067078
0.9015388
0.8977023
0.896689
0.8954101
0.8938244
0.8913648
0.8926181
0.8882999
0.8851308
0.882077
1.125193
1.024987
0.8752136
0.9267192
0.9187314
0.9087678
0.9041644
0.8990622
0.8939754
0.8888365
0.8876562
0.8863862
0.8853039
0.8845398
0.8835308
0.8809979
0.877851
0.8751296
1.125215
1.023617
0.8653058
0.9194178
0.9122799
0.9006416
0.8984686
0.8907317
0.8866875
0.8811284
0.8784924
0.8776626
0.8768689
0.8764172
0.8750352
0.8732418
0.8705827
0.868429
1.125236
1.02173
0.8542965
0.9104348
0.9052091
0.8995284
0.8896252
0.8841995
0.8782859
0.8735963
0.8702214
0.8692205
0.8686364
0.8681664
0.8670086
0.8671391
0.864041
0.8618109
1.125254
1.020067
0.8403969
0.900389
0.9092061
0.8909945
0.8827091
0.8756664
0.8709557
0.8664962
0.8624762
0.8611374
0.8606759
0.8602686
0.856802
0.8617944
0.8567983
0.8553046
1.12527
1.018144
0.8258801
0.909071
0.9006871
0.883284
0.8735667
0.8695381
0.8636165
0.8593165
0.8553239
0.8531687
0.8530646
0.8530759
0.8499956