/*--------------------------------*- C++ -*----------------------------------*\
| =========                 |                                                 |
| \\      /  F ield         | OpenFOAM: The Open Source CFD Toolbox           |
|  \\    /   O peration     | Version:  2206                                  |
|   \\  /    A nd           | Website:  www.openfoam.com                      |
|    \\/     M anipulation  |                                                 |
\*---------------------------------------------------------------------------*/
FoamFile
{
    version     2.0;
    format      ascii;
    arch        "LSB;label=32;scalar=64";
    class       volScalarField;
    location    "2.4";
    object      nuEffb;
}
// * * * * * * * * * * * * * * * * * * * * * * * * * * * * * * * * * * * * * //

dimensions      [0 2 -1 0 0 0 0];

internalField   nonuniform List<scalar> 
13078
(
1.611022e-05
3.156146e-05
4.993854e-05
5.140525e-05
5.089823e-05
5.0004e-05
4.897392e-05
3.52643e-05
4.932654e-05
5.212536e-05
5.174423e-05
5.095943e-05
5.004111e-05
4.9003e-05
5.252744e-05
5.317226e-05
5.274046e-05
5.19414e-05
5.105926e-05
5.010423e-05
4.904835e-05
5.491998e-05
5.386185e-05
5.297429e-05
5.208983e-05
5.116094e-05
5.017356e-05
4.910015e-05
5.518646e-05
5.405636e-05
5.310967e-05
5.218536e-05
5.124715e-05
5.024037e-05
4.915203e-05
5.512406e-05
5.409045e-05
5.317461e-05
5.224937e-05
5.129751e-05
5.029605e-05
4.920089e-05
5.504383e-05
5.408025e-05
5.320115e-05
5.228702e-05
5.133333e-05
5.032554e-05
4.924221e-05
5.498379e-05
5.40563e-05
5.320899e-05
5.230536e-05
5.13538e-05
5.034659e-05
4.926108e-05
5.494029e-05
5.403241e-05
5.320344e-05
5.23104e-05
5.136444e-05
5.035987e-05
4.927508e-05
5.490859e-05
5.401173e-05
5.319427e-05
5.231007e-05
5.136929e-05
5.036793e-05
4.928459e-05
5.488467e-05
5.399456e-05
5.318474e-05
5.230701e-05
5.137071e-05
5.037261e-05
4.929133e-05
5.486544e-05
5.39807e-05
5.317571e-05
5.230267e-05
5.137021e-05
5.037519e-05
4.9296e-05
5.484984e-05
5.396881e-05
5.316738e-05
5.229804e-05
5.136868e-05
5.037641e-05
4.929939e-05
5.483645e-05
5.395853e-05
5.31598e-05
5.229356e-05
5.136692e-05
5.03769e-05
4.930204e-05
5.482467e-05
5.394939e-05
5.315319e-05
5.229461e-05
5.137209e-05
5.037793e-05
4.930426e-05
5.481381e-05
5.3941e-05
5.314716e-05
5.229659e-05
5.137487e-05
5.037841e-05
4.930636e-05
5.480336e-05
5.393275e-05
5.314083e-05
5.22931e-05
5.137323e-05
5.037844e-05
4.930837e-05
5.479295e-05
5.392473e-05
5.313464e-05
5.228923e-05
5.137139e-05
5.037849e-05
4.931043e-05
5.478233e-05
5.391656e-05
5.312844e-05
5.228522e-05
5.136965e-05
5.037907e-05
4.931239e-05
5.477124e-05
5.390819e-05
5.312218e-05
5.228177e-05
5.137578e-05
5.03898e-05
4.931583e-05
5.475949e-05
5.389916e-05
5.311546e-05
5.227808e-05
5.138268e-05
5.039704e-05
4.931921e-05
5.474656e-05
5.388939e-05
5.310798e-05
5.227322e-05
5.138184e-05
5.039813e-05
4.93219e-05
5.473243e-05
5.387872e-05
5.309992e-05
5.226818e-05
5.137978e-05
5.039938e-05
4.932594e-05
5.471666e-05
5.38667e-05
5.309092e-05
5.226263e-05
5.137854e-05
5.041117e-05
4.93439e-05
5.469888e-05
5.385325e-05
5.308072e-05
5.225636e-05
5.137672e-05
5.042415e-05
4.935698e-05
5.467881e-05
5.383799e-05
5.306934e-05
5.224919e-05
5.137369e-05
5.042742e-05
4.936291e-05
5.465574e-05
5.382053e-05
5.305629e-05
5.224097e-05
5.137019e-05
5.042891e-05
4.936959e-05
5.462966e-05
5.380081e-05
5.304147e-05
5.22315e-05
5.13662e-05
5.043106e-05
4.939072e-05
5.45997e-05
5.377803e-05
5.302459e-05
5.222058e-05
5.136117e-05
5.043217e-05
4.941304e-05
5.456883e-05
5.375537e-05
5.300644e-05
5.220818e-05
5.135461e-05
5.043102e-05
4.942142e-05
5.453261e-05
5.372852e-05
5.298553e-05
5.219406e-05
5.13466e-05
5.042853e-05
4.942576e-05
5.449201e-05
5.370386e-05
5.297055e-05
5.217983e-05
5.133678e-05
5.042362e-05
4.942603e-05
5.44488e-05
5.367746e-05
5.295805e-05
5.217623e-05
5.132989e-05
5.041954e-05
4.942413e-05
5.440602e-05
5.365209e-05
5.294957e-05
5.217173e-05
5.133148e-05
5.042795e-05
4.943368e-05
5.436911e-05
5.364175e-05
5.296151e-05
5.221519e-05
5.13934e-05
5.048363e-05
4.948109e-05
5.435373e-05
5.36687e-05
5.303452e-05
5.234129e-05
5.155468e-05
5.064421e-05
4.960114e-05
5.437956e-05
5.37832e-05
5.323389e-05
5.259783e-05
5.184033e-05
5.086597e-05
4.973309e-05
5.44884e-05
5.40482e-05
5.358637e-05
5.296255e-05
5.217752e-05
5.11222e-05
4.981088e-05
5.473726e-05
5.445633e-05
5.403086e-05
5.337282e-05
5.250138e-05
5.138087e-05
4.980333e-05
5.516618e-05
5.495242e-05
5.449354e-05
5.377979e-05
5.28115e-05
5.158413e-05
4.987928e-05
5.57408e-05
5.545796e-05
5.499071e-05
5.415979e-05
5.313245e-05
5.182899e-05
5.01351e-05
5.643462e-05
5.591487e-05
5.544675e-05
5.460461e-05
5.347069e-05
5.21257e-05
5.052549e-05
5.716501e-05
5.633253e-05
5.582208e-05
5.501276e-05
5.393081e-05
5.244881e-05
5.113704e-05
5.78632e-05
5.658539e-05
5.616081e-05
5.529535e-05
5.418586e-05
5.290843e-05
5.171736e-05
5.832101e-05
5.671636e-05
5.630934e-05
5.53539e-05
5.42354e-05
5.337178e-05
5.251767e-05
5.847776e-05
5.675102e-05
5.628779e-05
5.518927e-05
5.427431e-05
5.360633e-05
5.302001e-05
5.846975e-05
5.671762e-05
5.602727e-05
5.501006e-05
5.429385e-05
5.371417e-05
5.298919e-05
5.849139e-05
5.667032e-05
5.588168e-05
5.492709e-05
5.441643e-05
5.377615e-05
5.283671e-05
5.847842e-05
5.661703e-05
5.588036e-05
5.493772e-05
5.443094e-05
5.373386e-05
5.262586e-05
5.84078e-05
5.661338e-05
5.591597e-05
5.499531e-05
5.446701e-05
5.352463e-05
5.22098e-05
5.825359e-05
5.670598e-05
5.604729e-05
5.498735e-05
5.433009e-05
5.309711e-05
5.149641e-05
5.7935e-05
5.66602e-05
5.612656e-05
5.50953e-05
5.421354e-05
5.262635e-05
5.071754e-05
5.750041e-05
5.643765e-05
5.577547e-05
5.480504e-05
5.373345e-05
5.196528e-05
4.986153e-05
5.705691e-05
5.613707e-05
5.543578e-05
5.433513e-05
5.305008e-05
5.10838e-05
4.918199e-05
5.662874e-05
5.580843e-05
5.504078e-05
5.383551e-05
5.241036e-05
5.043497e-05
4.858055e-05
5.618815e-05
5.54311e-05
5.461194e-05
5.337742e-05
5.193825e-05
5.002701e-05
4.814354e-05
5.583768e-05
5.496232e-05
5.411228e-05
5.293343e-05
5.161278e-05
4.979833e-05
4.796325e-05
5.570024e-05
5.464138e-05
5.380644e-05
5.272437e-05
5.155458e-05
4.981376e-05
4.804429e-05
5.559972e-05
5.436419e-05
5.355192e-05
5.255719e-05
5.152952e-05
4.987861e-05
4.817593e-05
5.554013e-05
5.409005e-05
5.326981e-05
5.234781e-05
5.143946e-05
4.996289e-05
4.820518e-05
5.558572e-05
5.391768e-05
5.308786e-05
5.202226e-05
5.121282e-05
4.981232e-05
4.806257e-05
5.570369e-05
5.384409e-05
5.297324e-05
5.183377e-05
5.108631e-05
4.977336e-05
4.805412e-05
5.580466e-05
5.384651e-05
5.282949e-05
5.163342e-05
5.090679e-05
4.978333e-05
4.801579e-05
5.587998e-05
5.398538e-05
5.292104e-05
5.159267e-05
5.079033e-05
4.980811e-05
4.810874e-05
5.598525e-05
5.429889e-05
5.321012e-05
5.174562e-05
5.071762e-05
4.984926e-05
4.832997e-05
5.617699e-05
5.463588e-05
5.364091e-05
5.205219e-05
5.059507e-05
4.957297e-05
4.844418e-05
5.638015e-05
5.490372e-05
5.403192e-05
5.242056e-05
5.065484e-05
4.936097e-05
4.843676e-05
5.637254e-05
5.502544e-05
5.416397e-05
5.277023e-05
5.093849e-05
4.921804e-05
4.808968e-05
5.607849e-05
5.503553e-05
5.417617e-05
5.296165e-05
5.130186e-05
4.931855e-05
4.76589e-05
5.563568e-05
5.491781e-05
5.410574e-05
5.294691e-05
5.150811e-05
4.964086e-05
4.762177e-05
5.518569e-05
5.468896e-05
5.397702e-05
5.290963e-05
5.158422e-05
4.996961e-05
4.796958e-05
5.479116e-05
5.442269e-05
5.380653e-05
5.286771e-05
5.168e-05
5.022626e-05
4.852053e-05
5.450522e-05
5.412162e-05
5.357191e-05
5.278598e-05
5.176221e-05
5.05175e-05
4.885851e-05
5.434093e-05
5.384812e-05
5.331695e-05
5.261162e-05
5.173841e-05
5.066567e-05
4.922609e-05
5.428402e-05
5.36652e-05
5.308512e-05
5.240736e-05
5.161294e-05
5.062617e-05
4.943458e-05
5.428619e-05
5.358956e-05
5.294192e-05
5.22373e-05
5.143985e-05
5.050844e-05
4.945128e-05
5.431788e-05
5.358133e-05
5.289378e-05
5.215217e-05
5.132546e-05
5.041181e-05
4.940209e-05
5.436672e-05
5.360478e-05
5.289899e-05
5.212847e-05
5.128794e-05
5.037056e-05
4.937509e-05
5.441717e-05
5.364041e-05
5.29214e-05
5.213167e-05
5.128252e-05
5.037283e-05
4.937895e-05
5.446563e-05
5.367701e-05
5.294476e-05
5.215274e-05
5.130082e-05
5.038716e-05
4.939127e-05
5.451121e-05
5.370849e-05
5.296426e-05
5.216586e-05
5.131762e-05
5.040115e-05
4.940108e-05
5.455151e-05
5.373618e-05
5.298392e-05
5.218558e-05
5.133295e-05
5.041119e-05
4.940544e-05
5.458597e-05
5.376364e-05
5.300749e-05
5.220329e-05
5.13452e-05
5.041798e-05
4.940544e-05
5.461495e-05
5.378643e-05
5.302709e-05
5.221816e-05
5.135475e-05
5.042261e-05
4.940152e-05
5.464282e-05
5.380873e-05
5.304472e-05
5.223082e-05
5.13621e-05
5.042434e-05
4.938183e-05
5.466708e-05
5.382775e-05
5.305985e-05
5.224123e-05
5.136784e-05
5.042441e-05
4.936368e-05
5.468841e-05
5.384448e-05
5.307294e-05
5.225002e-05
5.137249e-05
5.042452e-05
4.935884e-05
5.470689e-05
5.38588e-05
5.308406e-05
5.225753e-05
5.137628e-05
5.042256e-05
4.935442e-05
5.472339e-05
5.38714e-05
5.309382e-05
5.226411e-05
5.137859e-05
5.040979e-05
4.934172e-05
5.473793e-05
5.388269e-05
5.310251e-05
5.226963e-05
5.13802e-05
5.039904e-05
4.932479e-05
5.4751e-05
5.389263e-05
5.31102e-05
5.227453e-05
5.138245e-05
5.039802e-05
4.932135e-05
5.476282e-05
5.390171e-05
5.311728e-05
5.227911e-05
5.138328e-05
5.039723e-05
4.931898e-05
5.477366e-05
5.391003e-05
5.312342e-05
5.228244e-05
5.137581e-05
5.038959e-05
4.931568e-05
5.478378e-05
5.391769e-05
5.312916e-05
5.228548e-05
5.136978e-05
5.037903e-05
4.93123e-05
5.479337e-05
5.392503e-05
5.313467e-05
5.228917e-05
5.137136e-05
5.037841e-05
4.931052e-05
5.480267e-05
5.393212e-05
5.31402e-05
5.229263e-05
5.137304e-05
5.037848e-05
4.930871e-05
5.481196e-05
5.393934e-05
5.314582e-05
5.229574e-05
5.137458e-05
5.037853e-05
4.930684e-05
5.482134e-05
5.394654e-05
5.3151e-05
5.229303e-05
5.137133e-05
5.037804e-05
4.93049e-05
5.483124e-05
5.395425e-05
5.315661e-05
5.229174e-05
5.136622e-05
5.037715e-05
4.930306e-05
5.484228e-05
5.396281e-05
5.316313e-05
5.229584e-05
5.136806e-05
5.037708e-05
4.930101e-05
5.485478e-05
5.397277e-05
5.31704e-05
5.230027e-05
5.137001e-05
5.037671e-05
4.929867e-05
5.486986e-05
5.398419e-05
5.317839e-05
5.230469e-05
5.137146e-05
5.037558e-05
4.929553e-05
5.488838e-05
5.399776e-05
5.318715e-05
5.230878e-05
5.137195e-05
5.037319e-05
4.929104e-05
5.491167e-05
5.401444e-05
5.319645e-05
5.231177e-05
5.137066e-05
5.036872e-05
4.928464e-05
5.494252e-05
5.403488e-05
5.320509e-05
5.231236e-05
5.136614e-05
5.03608e-05
4.927494e-05
5.4985e-05
5.405843e-05
5.32067e-05
5.230476e-05
5.135539e-05
5.034745e-05
4.926135e-05
5.504414e-05
5.408227e-05
5.320096e-05
5.228619e-05
5.133439e-05
5.03276e-05
4.922629e-05
5.512316e-05
5.409421e-05
5.317911e-05
5.225275e-05
5.130273e-05
5.02832e-05
4.918356e-05
5.518961e-05
5.406318e-05
5.311614e-05
5.219577e-05
5.123792e-05
5.022667e-05
4.913581e-05
5.494393e-05
5.387772e-05
5.299721e-05
5.208551e-05
5.115195e-05
5.016181e-05
4.90839e-05
5.282396e-05
5.326969e-05
5.274141e-05
5.193977e-05
5.105395e-05
5.00928e-05
4.903167e-05
3.670863e-05
5.026235e-05
5.235637e-05
5.175903e-05
5.094689e-05
5.002396e-05
4.898231e-05
4.779447e-05
4.638344e-05
4.461316e-05
4.303846e-05
4.046858e-05
3.693696e-05
3.056086e-05
4.782276e-05
4.641602e-05
4.465074e-05
4.307946e-05
4.051352e-05
3.698969e-05
3.078446e-05
4.786066e-05
4.645361e-05
4.469522e-05
4.255651e-05
4.055684e-05
3.704046e-05
3.09019e-05
4.790299e-05
4.649317e-05
4.473303e-05
4.317406e-05
4.060208e-05
3.709196e-05
3.100854e-05
4.79462e-05
4.653453e-05
4.477667e-05
4.322289e-05
4.064854e-05
3.714365e-05
3.108258e-05
4.798835e-05
4.657625e-05
4.4821e-05
4.327086e-05
4.069449e-05
3.719506e-05
3.115148e-05
4.802821e-05
4.661671e-05
4.486451e-05
4.331632e-05
4.070852e-05
3.72464e-05
3.121712e-05
4.806269e-05
4.665572e-05
4.490687e-05
4.336063e-05
4.072171e-05
3.72974e-05
3.127686e-05
4.80762e-05
4.669042e-05
4.494685e-05
4.340483e-05
4.075912e-05
3.734338e-05
3.133572e-05
4.808657e-05
4.670215e-05
4.498325e-05
4.344846e-05
4.079556e-05
3.738945e-05
3.139115e-05
4.809437e-05
4.671122e-05
4.499455e-05
4.349005e-05
4.083191e-05
3.743563e-05
3.144412e-05
4.810069e-05
4.671908e-05
4.500344e-05
4.349993e-05
4.086843e-05
3.748208e-05
3.149515e-05
4.810583e-05
4.672611e-05
4.501199e-05
4.3509e-05
4.08754e-05
3.752988e-05
3.154378e-05
4.811037e-05
4.673269e-05
4.502044e-05
4.351832e-05
4.088323e-05
3.753931e-05
3.158221e-05
4.811457e-05
4.673926e-05
4.502899e-05
4.352783e-05
4.089165e-05
3.755089e-05
3.156268e-05
4.811874e-05
4.674588e-05
4.503768e-05
4.353779e-05
4.090084e-05
3.756355e-05
3.15366e-05
4.812284e-05
4.675265e-05
4.504662e-05
4.354863e-05
4.091536e-05
3.757695e-05
3.151691e-05
4.812704e-05
4.675946e-05
4.505621e-05
4.356421e-05
4.101867e-05
3.759163e-05
3.148908e-05
4.813139e-05
4.676631e-05
4.506612e-05
4.357635e-05
4.103756e-05
3.760682e-05
3.146486e-05
4.813612e-05
4.677363e-05
4.507662e-05
4.358919e-05
4.105179e-05
3.762305e-05
3.143747e-05
4.814105e-05
4.678136e-05
4.508751e-05
4.360284e-05
4.106679e-05
3.764017e-05
3.140035e-05
4.814647e-05
4.678956e-05
4.509867e-05
4.361747e-05
4.108267e-05
3.765825e-05
3.137065e-05
4.815212e-05
4.679858e-05
4.51111e-05
4.363062e-05
4.110377e-05
3.767719e-05
3.13398e-05
4.816031e-05
4.680857e-05
4.51268e-05
4.309861e-05
4.121562e-05
3.770637e-05
3.131026e-05
4.816855e-05
4.681874e-05
4.513933e-05
4.366198e-05
4.126717e-05
3.773078e-05
3.12823e-05
4.817646e-05
4.683008e-05
4.515509e-05
4.368658e-05
4.129177e-05
3.775436e-05
3.125399e-05
4.818793e-05
4.684439e-05
4.517406e-05
4.370982e-05
4.131738e-05
3.778184e-05
3.122316e-05
4.821851e-05
4.686144e-05
4.519206e-05
4.37337e-05
4.135147e-05
3.79701e-05
3.119716e-05
4.823667e-05
4.724712e-05
4.565095e-05
4.37451e-05
4.138516e-05
3.804658e-05
3.118049e-05
4.825115e-05
4.726366e-05
4.567782e-05
4.377497e-05
4.141987e-05
3.808115e-05
3.116832e-05
4.829154e-05
4.731017e-05
4.570081e-05
4.380594e-05
4.145762e-05
3.822611e-05
3.117308e-05
4.831182e-05
4.734914e-05
4.572267e-05
4.383884e-05
4.149521e-05
3.838191e-05
3.120905e-05
4.831471e-05
4.741587e-05
4.574854e-05
4.386669e-05
4.152862e-05
3.842653e-05
3.132914e-05
4.831668e-05
4.742972e-05
4.578266e-05
4.38742e-05
4.154323e-05
3.84981e-05
3.232876e-05
4.833261e-05
4.743099e-05
4.579562e-05
4.383504e-05
4.149996e-05
3.864959e-05
3.310015e-05
4.834899e-05
4.741891e-05
4.577181e-05
4.363708e-05
4.131661e-05
3.892634e-05
3.558082e-05
4.828649e-05
4.728696e-05
4.540528e-05
4.313433e-05
4.096941e-05
3.889684e-05
3.592942e-05
4.808224e-05
4.692869e-05
4.486829e-05
4.280114e-05
4.046658e-05
3.78486e-05
3.587213e-05
4.779087e-05
4.644176e-05
4.433772e-05
4.231264e-05
3.953017e-05
3.714067e-05
3.551578e-05
4.768907e-05
4.60526e-05
4.40238e-05
4.175863e-05
3.936965e-05
3.713979e-05
3.496298e-05
4.791893e-05
4.611704e-05
4.430814e-05
4.146725e-05
3.913526e-05
3.698151e-05
3.348049e-05
4.886661e-05
4.695705e-05
4.442485e-05
4.100402e-05
3.866554e-05
3.678077e-05
3.325241e-05
4.975289e-05
4.769818e-05
4.453207e-05
4.074157e-05
3.83966e-05
3.66879e-05
3.281728e-05
5.05626e-05
4.821564e-05
4.458706e-05
4.064967e-05
3.861276e-05
3.654225e-05
3.365811e-05
5.11164e-05
4.917911e-05
4.52586e-05
4.082723e-05
3.847446e-05
3.689222e-05
3.418182e-05
5.173893e-05
4.990464e-05
4.595183e-05
4.10472e-05
3.854417e-05
3.747371e-05
3.404656e-05
5.19094e-05
5.018953e-05
4.587046e-05
4.142512e-05
3.929914e-05
3.735706e-05
3.518486e-05
5.149113e-05
4.984978e-05
4.584301e-05
4.165694e-05
3.92489e-05
3.838795e-05
3.825839e-05
5.089447e-05
4.939136e-05
4.530125e-05
4.105595e-05
3.906433e-05
3.829497e-05
3.914335e-05
5.027422e-05
4.861109e-05
4.431913e-05
4.060011e-05
3.853562e-05
3.86049e-05
3.803229e-05
4.949938e-05
4.834422e-05
4.331362e-05
3.999084e-05
3.893242e-05
3.827641e-05
3.666819e-05
4.861421e-05
4.748759e-05
4.264416e-05
3.986219e-05
3.915851e-05
3.837584e-05
3.653479e-05
4.769213e-05
4.643389e-05
4.188077e-05
4.043415e-05
3.986877e-05
3.878047e-05
3.727565e-05
4.674808e-05
4.505163e-05
4.079754e-05
4.003753e-05
3.983961e-05
3.93455e-05
3.799947e-05
4.587532e-05
4.369657e-05
3.965572e-05
3.929169e-05
3.920578e-05
3.892976e-05
3.899836e-05
4.540767e-05
4.269949e-05
3.929316e-05
3.865151e-05
3.858935e-05
4.024947e-05
4.521244e-05
4.212776e-05
3.907631e-05
3.867015e-05
3.848698e-05
3.985841e-05
4.527847e-05
4.216283e-05
3.939887e-05
3.953033e-05
3.865869e-05
3.915827e-05
4.55346e-05
4.289325e-05
4.027394e-05
3.981797e-05
3.925863e-05
3.943324e-05
4.007335e-05
4.582565e-05
4.360138e-05
3.998754e-05
3.917105e-05
3.903602e-05
3.836424e-05
3.861852e-05
4.555308e-05
4.333625e-05
3.953726e-05
3.835226e-05
3.866751e-05
3.830736e-05
3.938846e-05
4.560207e-05
4.317555e-05
3.982307e-05
3.854771e-05
3.924487e-05
3.926374e-05
3.93672e-05
4.546697e-05
4.285213e-05
3.977199e-05
3.94546e-05
3.948635e-05
3.917013e-05
3.765039e-05
4.557499e-05
4.309848e-05
3.993123e-05
3.969071e-05
3.943278e-05
3.906632e-05
3.852748e-05
4.586366e-05
4.358625e-05
3.98695e-05
3.891763e-05
3.896931e-05
3.999745e-05
3.828015e-05
4.624173e-05
4.400704e-05
4.017382e-05
3.836123e-05
3.848494e-05
3.963903e-05
3.680854e-05
4.647664e-05
4.457622e-05
4.042751e-05
3.838347e-05
3.827488e-05
3.806002e-05
3.58921e-05
4.640136e-05
4.45958e-05
4.062381e-05
3.858168e-05
3.815116e-05
3.713817e-05
3.455748e-05
4.610772e-05
4.467428e-05
4.102341e-05
3.862699e-05
3.829539e-05
3.661774e-05
3.259722e-05
4.562814e-05
4.447729e-05
4.164874e-05
3.899658e-05
3.792061e-05
3.66752e-05
3.231828e-05
4.550867e-05
4.398401e-05
4.228371e-05
3.927381e-05
3.799084e-05
3.695347e-05
3.3488e-05
4.598384e-05
4.385256e-05
4.244411e-05
3.988406e-05
3.821579e-05
3.748785e-05
3.455594e-05
4.677026e-05
4.472747e-05
4.296757e-05
4.059017e-05
3.884879e-05
3.746233e-05
3.497633e-05
4.749916e-05
4.568748e-05
4.410994e-05
4.194118e-05
3.934131e-05
3.73903e-05
3.572931e-05
4.799671e-05
4.655206e-05
4.500972e-05
4.31375e-05
4.065209e-05
3.826582e-05
3.637509e-05
4.820353e-05
4.706613e-05
4.557472e-05
4.353032e-05
4.130362e-05
3.895218e-05
3.512657e-05
4.825283e-05
4.725025e-05
4.581108e-05
4.379887e-05
4.150021e-05
3.890152e-05
3.421611e-05
4.826181e-05
4.730142e-05
4.583676e-05
4.385843e-05
4.155849e-05
3.860189e-05
3.251335e-05
4.827276e-05
4.732322e-05
4.577729e-05
4.385842e-05
4.155309e-05
3.849296e-05
3.190656e-05
4.828398e-05
4.733453e-05
4.572913e-05
4.384275e-05
4.152381e-05
3.844389e-05
3.154609e-05
4.828611e-05
4.729708e-05
4.570504e-05
4.38181e-05
4.148729e-05
3.839094e-05
3.108435e-05
4.826909e-05
4.726054e-05
4.568457e-05
4.379208e-05
4.145075e-05
3.832502e-05
3.10925e-05
4.823367e-05
4.721649e-05
4.566777e-05
4.376738e-05
4.141703e-05
3.8102e-05
3.111707e-05
4.822379e-05
4.720255e-05
4.564949e-05
4.374536e-05
4.138665e-05
3.805318e-05
3.114692e-05
4.820845e-05
4.685131e-05
4.518203e-05
4.370213e-05
4.135785e-05
3.802107e-05
3.11773e-05
4.818094e-05
4.683725e-05
4.516693e-05
4.368625e-05
4.132623e-05
3.785014e-05
3.12107e-05
4.817156e-05
4.682504e-05
4.515075e-05
4.366887e-05
4.129945e-05
3.776467e-05
3.124883e-05
4.816516e-05
4.681514e-05
4.513654e-05
4.365248e-05
4.127608e-05
3.774149e-05
3.128299e-05
4.815786e-05
4.680572e-05
4.512306e-05
4.363694e-05
4.125082e-05
3.772e-05
3.131971e-05
4.815056e-05
4.6797e-05
4.511057e-05
4.362185e-05
4.113669e-05
3.769201e-05
3.135158e-05
4.814562e-05
4.678885e-05
4.50987e-05
4.360758e-05
4.109086e-05
3.766976e-05
3.138526e-05
4.814073e-05
4.6781e-05
4.50875e-05
4.359435e-05
4.107536e-05
3.765196e-05
3.141981e-05
4.8136e-05
4.677363e-05
4.507693e-05
4.358161e-05
4.106041e-05
3.763489e-05
3.145162e-05
4.813142e-05
4.676668e-05
4.506679e-05
4.356956e-05
4.104631e-05
3.761854e-05
3.148287e-05
4.812735e-05
4.676007e-05
4.50573e-05
4.355797e-05
4.103306e-05
3.760315e-05
3.151008e-05
4.812334e-05
4.675349e-05
4.504803e-05
4.354466e-05
4.097492e-05
3.758835e-05
3.15346e-05
4.811948e-05
4.674702e-05
4.503928e-05
4.353209e-05
4.09082e-05
3.757439e-05
3.155853e-05
4.81157e-05
4.674086e-05
4.503098e-05
4.352187e-05
4.089892e-05
3.756126e-05
3.158471e-05
4.811201e-05
4.673483e-05
4.502293e-05
4.35118e-05
4.089021e-05
3.754897e-05
3.158599e-05
4.810815e-05
4.672889e-05
4.501496e-05
4.350214e-05
4.088227e-05
3.753767e-05
3.158189e-05
4.8104e-05
4.672271e-05
4.500713e-05
4.349249e-05
4.087455e-05
3.750926e-05
3.153092e-05
4.809911e-05
4.671598e-05
4.499909e-05
4.34827e-05
4.085344e-05
3.746245e-05
3.147716e-05
4.809321e-05
4.67084e-05
4.498871e-05
4.345699e-05
4.081739e-05
3.741588e-05
3.142067e-05
4.808537e-05
4.669845e-05
4.495354e-05
4.341332e-05
4.07812e-05
3.736954e-05
3.136349e-05
4.807485e-05
4.666597e-05
4.49151e-05
4.336915e-05
4.074491e-05
3.732317e-05
3.130276e-05
4.804404e-05
4.662928e-05
4.487417e-05
4.332407e-05
4.070965e-05
3.727457e-05
3.12404e-05
4.800787e-05
4.659089e-05
4.483185e-05
4.32806e-05
4.071931e-05
3.722302e-05
3.117607e-05
4.796871e-05
4.655047e-05
4.478841e-05
4.323461e-05
4.067512e-05
3.717131e-05
3.110815e-05
4.792659e-05
4.65086e-05
4.474425e-05
4.318896e-05
4.062905e-05
3.711955e-05
3.103455e-05
4.788243e-05
4.646633e-05
4.470012e-05
4.314382e-05
4.058288e-05
3.706757e-05
3.094581e-05
4.783918e-05
4.642542e-05
4.465689e-05
4.310036e-05
4.053681e-05
3.701545e-05
3.082815e-05
4.779834e-05
4.638527e-05
4.461443e-05
4.305867e-05
4.049109e-05
3.696291e-05
3.064862e-05
1.017403e-06
1e-06
1e-06
1e-06
1e-06
1e-06
1e-06
1e-06
1e-06
1e-06
1e-06
1e-06
1e-06
1e-06
1e-06
1e-06
1e-06
1e-06
1.038947e-06
1e-06
1e-06
1e-06
1e-06
1e-06
1e-06
1e-06
1e-06
1e-06
1e-06
1e-06
1e-06
1e-06
1e-06
1e-06
1e-06
1e-06
1.045564e-06
1e-06
1e-06
1e-06
1e-06
1e-06
1e-06
1e-06
1e-06
1e-06
1e-06
1e-06
1e-06
1e-06
1e-06
1e-06
1e-06
1e-06
1.049362e-06
1e-06
1e-06
1e-06
1e-06
1e-06
1e-06
1e-06
1e-06
1e-06
1e-06
1e-06
1e-06
1e-06
1e-06
1e-06
1e-06
1e-06
1.053148e-06
1e-06
1e-06
1e-06
1e-06
1e-06
1e-06
1e-06
1e-06
1e-06
1e-06
1e-06
1e-06
1e-06
1e-06
1e-06
1e-06
1e-06
1.056893e-06
1e-06
1e-06
1e-06
1e-06
1e-06
1e-06
1e-06
1e-06
1e-06
1e-06
1e-06
1e-06
1e-06
1e-06
1e-06
1e-06
1e-06
1.060722e-06
1e-06
1e-06
1e-06
1e-06
1e-06
1e-06
1e-06
1e-06
1e-06
1e-06
1e-06
1e-06
1e-06
1e-06
1e-06
1e-06
1e-06
1.064539e-06
1e-06
1e-06
1e-06
1e-06
1e-06
1e-06
1e-06
1e-06
1e-06
1e-06
1e-06
1e-06
1e-06
1e-06
1e-06
1e-06
1e-06
1.068344e-06
1e-06
1e-06
1e-06
1e-06
1e-06
1e-06
1e-06
1e-06
1e-06
1e-06
1e-06
1e-06
1e-06
1e-06
1e-06
1e-06
1e-06
1.072325e-06
1e-06
1e-06
1e-06
1e-06
1e-06
1e-06
1e-06
1e-06
1e-06
1e-06
1e-06
1e-06
1e-06
1e-06
1e-06
1e-06
1e-06
1.076357e-06
1e-06
1e-06
1e-06
1e-06
1e-06
1e-06
1e-06
1e-06
1e-06
1e-06
1e-06
1e-06
1e-06
1e-06
1e-06
1e-06
1e-06
1.080296e-06
1e-06
1e-06
1e-06
1e-06
1e-06
1e-06
1e-06
1e-06
1e-06
1e-06
1e-06
1e-06
1e-06
1e-06
1e-06
1e-06
1e-06
1.084369e-06
1e-06
1e-06
1e-06
1e-06
1e-06
1e-06
1e-06
1e-06
1e-06
1e-06
1e-06
1e-06
1e-06
1e-06
1e-06
1e-06
1e-06
1.089073e-06
1e-06
1e-06
1e-06
1e-06
1e-06
1e-06
1e-06
1e-06
1e-06
1e-06
1e-06
1e-06
1e-06
1e-06
1e-06
1e-06
1e-06
1.110952e-06
1e-06
1e-06
1e-06
1e-06
1e-06
1e-06
1e-06
1e-06
1e-06
1e-06
1e-06
1e-06
1e-06
1e-06
1e-06
1e-06
1e-06
1.115923e-06
1e-06
1e-06
1e-06
1e-06
1e-06
1e-06
1e-06
1e-06
1e-06
1e-06
1e-06
1e-06
1e-06
1e-06
1e-06
1e-06
1e-06
1.123942e-06
1e-06
1e-06
1e-06
1e-06
1e-06
1e-06
1e-06
1e-06
1e-06
1e-06
1e-06
1e-06
1e-06
1e-06
1e-06
1e-06
1e-06
1.132937e-06
1e-06
1e-06
1e-06
1e-06
1e-06
1e-06
1e-06
1e-06
1e-06
1e-06
1e-06
1e-06
1e-06
1e-06
1e-06
1e-06
1e-06
1.142754e-06
1.000001e-06
1e-06
1e-06
1e-06
1e-06
1e-06
1e-06
1e-06
1e-06
1e-06
1e-06
1e-06
1e-06
1e-06
1e-06
1e-06
1e-06
1.152729e-06
1.000001e-06
1e-06
1e-06
1e-06
1e-06
1e-06
1e-06
1e-06
1e-06
1e-06
1e-06
1e-06
1e-06
1e-06
1e-06
1e-06
1e-06
1.16282e-06
1.000001e-06
1e-06
1e-06
1e-06
1e-06
1e-06
1e-06
1e-06
1e-06
1e-06
1e-06
1e-06
1e-06
1e-06
1e-06
1e-06
1e-06
1.173445e-06
1.000001e-06
1e-06
1e-06
1e-06
1e-06
1e-06
1e-06
1e-06
1e-06
1e-06
1e-06
1e-06
1e-06
1e-06
1e-06
1e-06
1e-06
1.184895e-06
1.000002e-06
1e-06
1e-06
1e-06
1e-06
1e-06
1e-06
1e-06
1e-06
1e-06
1e-06
1e-06
1e-06
1e-06
1e-06
1e-06
1e-06
1.197205e-06
1.000002e-06
1e-06
1e-06
1e-06
1e-06
1e-06
1e-06
1e-06
1e-06
1e-06
1e-06
1e-06
1e-06
1e-06
1e-06
1e-06
1e-06
1.210722e-06
1.000002e-06
1e-06
1e-06
1e-06
1e-06
1e-06
1e-06
1e-06
1e-06
1e-06
1e-06
1e-06
1e-06
1e-06
1e-06
1e-06
1e-06
1.225082e-06
1.000003e-06
1e-06
1e-06
1e-06
1e-06
1e-06
1e-06
1e-06
1e-06
1e-06
1e-06
1e-06
1e-06
1e-06
1e-06
1e-06
1e-06
1.240832e-06
1.000004e-06
1e-06
1e-06
1e-06
1e-06
1e-06
1e-06
1e-06
1e-06
1e-06
1e-06
1e-06
1e-06
1e-06
1e-06
1e-06
1e-06
1.258036e-06
1.000005e-06
1e-06
1e-06
1e-06
1e-06
1e-06
1e-06
1e-06
1e-06
1e-06
1e-06
1e-06
1e-06
1e-06
1e-06
1e-06
1e-06
1.276617e-06
1.000006e-06
1e-06
1e-06
1e-06
1e-06
1e-06
1e-06
1e-06
1e-06
1e-06
1e-06
1e-06
1e-06
1e-06
1e-06
1e-06
1e-06
1.297283e-06
1.000007e-06
1e-06
1e-06
1e-06
1e-06
1e-06
1e-06
1e-06
1e-06
1e-06
1e-06
1e-06
1e-06
1e-06
1e-06
1e-06
1e-06
1.320028e-06
1.000008e-06
1e-06
1e-06
1e-06
1e-06
1e-06
1e-06
1e-06
1e-06
1e-06
1e-06
1e-06
1e-06
1e-06
1e-06
1e-06
1e-06
1.344867e-06
1.000009e-06
1e-06
1e-06
1e-06
1e-06
1e-06
1e-06
1e-06
1e-06
1e-06
1e-06
1e-06
1e-06
1e-06
1e-06
1e-06
1e-06
1.373306e-06
1.000014e-06
1e-06
1e-06
1e-06
1e-06
1e-06
1e-06
1e-06
1e-06
1e-06
1e-06
1e-06
1e-06
1e-06
1e-06
1e-06
1e-06
1.409743e-06
1.000027e-06
1e-06
1e-06
1e-06
1e-06
1e-06
1e-06
1e-06
1e-06
1e-06
1e-06
1e-06
1e-06
1e-06
1e-06
1e-06
1e-06
1.515101e-06
1.000024e-06
1e-06
1e-06
1e-06
1e-06
1e-06
1e-06
1e-06
1e-06
1e-06
1e-06
1e-06
1e-06
1e-06
1e-06
1e-06
1e-06
1.597651e-06
1.000025e-06
1e-06
1e-06
1e-06
1e-06
1e-06
1e-06
1e-06
1e-06
1e-06
1e-06
1e-06
1e-06
1e-06
1e-06
1e-06
1e-06
1.765928e-06
1.000017e-06
1e-06
1e-06
1e-06
1e-06
1e-06
1e-06
1e-06
1e-06
1e-06
1e-06
1e-06
1e-06
1e-06
1e-06
1e-06
1e-06
2.803932e-06
1.000005e-06
1e-06
1e-06
1e-06
1e-06
1e-06
1e-06
1e-06
1e-06
1e-06
1e-06
1e-06
1e-06
1e-06
1e-06
1e-06
1e-06
5.82969e-06
1.000303e-06
1e-06
1e-06
1e-06
1e-06
1e-06
1e-06
1e-06
1e-06
1e-06
1e-06
1e-06
1e-06
1e-06
1e-06
1e-06
1e-06
1.366496e-05
1.001197e-06
1e-06
1e-06
1e-06
1e-06
1e-06
1e-06
1e-06
1e-06
1e-06
1e-06
1e-06
1e-06
1e-06
1e-06
1e-06
1e-06
2.123998e-05
1.001612e-06
1e-06
1e-06
1e-06
1e-06
1e-06
1e-06
1e-06
1e-06
1e-06
1e-06
1e-06
1e-06
1e-06
1e-06
1e-06
1e-06
2.253069e-05
1.002132e-06
1e-06
1e-06
1e-06
1e-06
1e-06
1e-06
1e-06
1e-06
1e-06
1e-06
1e-06
1e-06
1e-06
1e-06
1e-06
1e-06
2.292663e-05
1.001132e-06
1e-06
1e-06
1e-06
1e-06
1e-06
1e-06
1e-06
1e-06
1e-06
1e-06
1e-06
1e-06
1e-06
1e-06
1e-06
1e-06
2.376601e-05
1.003999e-06
1e-06
1e-06
1e-06
1e-06
1e-06
1e-06
1e-06
1e-06
1e-06
1e-06
1e-06
1e-06
1e-06
1e-06
1e-06
1e-06
2.439035e-05
1.002505e-06
1e-06
1e-06
1e-06
1e-06
1e-06
1e-06
1e-06
1e-06
1e-06
1e-06
1e-06
1e-06
1e-06
1e-06
1e-06
1e-06
2.455432e-05
1.002699e-06
1e-06
1e-06
1e-06
1e-06
1e-06
1e-06
1e-06
1e-06
1e-06
1e-06
1e-06
1e-06
1e-06
1e-06
1e-06
1e-06
2.686822e-05
1.001956e-06
1.000002e-06
1e-06
1e-06
1e-06
1e-06
1e-06
1e-06
1e-06
1e-06
1e-06
1e-06
1e-06
1e-06
1e-06
1e-06
1e-06
2.897814e-05
1.047637e-06
1.000028e-06
1e-06
1e-06
1e-06
1e-06
1e-06
1e-06
1e-06
1e-06
1e-06
1e-06
1e-06
1e-06
1e-06
1e-06
1e-06
3.26073e-05
1.219186e-06
1.000594e-06
1.000002e-06
1e-06
1e-06
1e-06
1e-06
1e-06
1e-06
1e-06
1e-06
1e-06
1e-06
1e-06
1e-06
1e-06
1e-06
3.634752e-05
1.924747e-06
1.002528e-06
1.00002e-06
1e-06
1e-06
1e-06
1e-06
1e-06
1e-06
1e-06
1e-06
1e-06
1e-06
3.577975e-05
1.986019e-05
1e-06
1e-06
1e-06
1e-06
1e-06
1e-06
1e-06
1e-06
3.337271e-05
1e-06
1e-06
1e-06
1e-06
1e-06
1e-06
1e-06
1e-06
1e-06
1e-06
1e-06
1e-06
1e-06
1e-06
1e-06
1e-06
1e-06
1e-06
1e-06
1e-06
1e-06
1e-06
1e-06
1e-06
1e-06
1e-06
1e-06
1e-06
1e-06
1e-06
1e-06
1e-06
1e-06
1e-06
1e-06
1e-06
1e-06
1e-06
1e-06
1e-06
1e-06
1e-06
1e-06
1e-06
1e-06
1e-06
1e-06
1e-06
1e-06
3.401721e-05
1e-06
1e-06
1e-06
1e-06
1e-06
1e-06
3.335276e-05
2.294139e-05
1e-06
1e-06
1e-06
1e-06
1e-06
1e-06
1e-06
3.315819e-05
2.998573e-06
1.00527e-06
1e-06
1e-06
1e-06
1e-06
1e-06
1e-06
1e-06
1e-06
1e-06
3.178216e-05
1.49819e-06
1.001685e-06
1.000025e-06
1.000001e-06
1e-06
1e-06
1e-06
1e-06
1e-06
1e-06
1e-06
1e-06
1e-06
1e-06
1e-06
1e-06
1e-06
2.90509e-05
1.116183e-06
1.000102e-06
1.000001e-06
1e-06
1e-06
1e-06
1e-06
1e-06
1e-06
1e-06
1e-06
1e-06
1e-06
1e-06
1e-06
1e-06
1e-06
2.824627e-05
1.035359e-06
1.00001e-06
1e-06
1e-06
1e-06
1e-06
1e-06
1e-06
1e-06
1e-06
1e-06
1e-06
1e-06
1e-06
1e-06
1e-06
1e-06
2.675272e-05
1.007538e-06
1.000003e-06
1e-06
1e-06
1e-06
1e-06
1e-06
1e-06
1e-06
1e-06
1e-06
1e-06
1e-06
1e-06
1e-06
1e-06
1e-06
2.430405e-05
1.006454e-06
1.000005e-06
1e-06
1e-06
1e-06
1e-06
1e-06
1e-06
1e-06
1e-06
1e-06
1e-06
1e-06
1e-06
1e-06
1e-06
1e-06
2.410057e-05
1.003601e-06
1.000002e-06
1e-06
1e-06
1e-06
1e-06
1e-06
1e-06
1e-06
1e-06
1e-06
1e-06
1e-06
1e-06
1e-06
1e-06
1e-06
2.412293e-05
1.004723e-06
1.000004e-06
1e-06
1e-06
1e-06
1e-06
1e-06
1e-06
1e-06
1e-06
1e-06
1e-06
1e-06
1e-06
1e-06
1e-06
1e-06
2.243246e-05
1.008181e-06
1.000013e-06
1e-06
1e-06
1e-06
1e-06
1e-06
1e-06
1e-06
1e-06
1e-06
1e-06
1e-06
1e-06
1e-06
1e-06
1e-06
2.13407e-05
1.017146e-06
1.000039e-06
1e-06
1e-06
1e-06
1e-06
1e-06
1e-06
1e-06
1e-06
1e-06
1e-06
1e-06
1e-06
1e-06
1e-06
1e-06
1.636005e-05
1.005853e-06
1.000004e-06
1e-06
1e-06
1e-06
1e-06
1e-06
1e-06
1e-06
1e-06
1e-06
1e-06
1e-06
1e-06
1e-06
1e-06
1e-06
8.129627e-06
1.001983e-06
1.000001e-06
1e-06
1e-06
1e-06
1e-06
1e-06
1e-06
1e-06
1e-06
1e-06
1e-06
1e-06
1e-06
1e-06
1e-06
1e-06
5.55135e-06
1.001484e-06
1e-06
1e-06
1e-06
1e-06
1e-06
1e-06
1e-06
1e-06
1e-06
1e-06
1e-06
1e-06
1e-06
1e-06
1e-06
1e-06
1.776732e-06
1.00012e-06
1e-06
1e-06
1e-06
1e-06
1e-06
1e-06
1e-06
1e-06
1e-06
1e-06
1e-06
1e-06
1e-06
1e-06
1e-06
1e-06
1.654871e-06
1.000075e-06
1e-06
1e-06
1e-06
1e-06
1e-06
1e-06
1e-06
1e-06
1e-06
1e-06
1e-06
1e-06
1e-06
1e-06
1e-06
1e-06
1.512677e-06
1.000019e-06
1e-06
1e-06
1e-06
1e-06
1e-06
1e-06
1e-06
1e-06
1e-06
1e-06
1e-06
1e-06
1e-06
1e-06
1e-06
1e-06
1.43711e-06
1.000014e-06
1e-06
1e-06
1e-06
1e-06
1e-06
1e-06
1e-06
1e-06
1e-06
1e-06
1e-06
1e-06
1e-06
1e-06
1e-06
1e-06
1.364213e-06
1.000019e-06
1e-06
1e-06
1e-06
1e-06
1e-06
1e-06
1e-06
1e-06
1e-06
1e-06
1e-06
1e-06
1e-06
1e-06
1e-06
1e-06
1.341906e-06
1.000018e-06
1e-06
1e-06
1e-06
1e-06
1e-06
1e-06
1e-06
1e-06
1e-06
1e-06
1e-06
1e-06
1e-06
1e-06
1e-06
1e-06
1.32095e-06
1.000015e-06
1e-06
1e-06