/*--------------------------------*- C++ -*----------------------------------*\
| =========                 |                                                 |
| \\      /  F ield         | OpenFOAM: The Open Source CFD Toolbox           |
|  \\    /   O peration     | Version:  2206                                  |
|   \\  /    A nd           | Website:  www.openfoam.com                      |
|    \\/     M anipulation  |                                                 |
\*---------------------------------------------------------------------------*/
FoamFile
{
    version     2.0;
    format      ascii;
    arch        "LSB;label=32;scalar=64";
    class       volScalarField;
    location    "2.4";
    object      nuFra;
}
// * * * * * * * * * * * * * * * * * * * * * * * * * * * * * * * * * * * * * //

dimensions      [0 2 -1 0 0 0 0];

internalField   nonuniform List<scalar> 
13078
(
0.005018953
0.85853
27.72269
73.81347
100
100
100
1.860577
16.9258
42.72338
100
100
100
100
29.75404
51.05062
98.45119
100
100
100
100
100
100
100
100
100
100
100
100
100
100
100
100
100
100
100
100
100
100
100
100
100
100
100
100
100
100
100
100
100
100
100
100
100
100
100
100
100
100
100
100
100
100
100
100
100
100
100
100
100
100
100
100
100
100
100
100
100
100
100
100
100
100
100
100
100
100
100
100
100
100
100
100
100
100
100
100
100
100
100
100
100
100
100
100
100
100
100
100
100
100
100
100
100
100
100
100
100
100
100
100
100
100
100
100
100
100
100
100
100
100
100
100
100
100
100
100
100
100
100
100
100
100
100
100
100
100
100
100
100
100
100
100
100
100
100
100
100
100
100
100
100
100
100
100
100
100
100
100
100
100
100
100
100
100
100
100
100
100
100
100
100
100
100
100
100
100
100
100
100
100
100
100
100
100
100
100
100
100
100
100
100
100
100
100
100
100
100
100
100
100
100
100
100
100
100
100
100
100
100
100
100
100
100
100
100
100
100
100
100
100
100
100
100
100
100
100
100
100
100
100
100
100
100
100
100
100
100
100
100
100
93.51893
100
100
100
100
100
91.99349
66.13215
100
100
100
100
96.68134
68.44685
43.24157
100
100
100
100
76.4349
50.08797
29.57282
100
100
100
88.68923
60.24603
37.97677
21.83597
100
100
100
76.23426
50.63612
31.66735
18.54254
100
100
92.45524
68.98186
46.84361
29.5661
17.18305
100
100
87.9781
66.28145
46.41797
29.36079
17.21752
100
100
86.71554
64.98061
45.7827
29.981
17.46769
100
100
87.89674
63.06955
44.05426
30.13107
18.29264
100
100
93.3194
63.54332
42.80591
28.79156
17.95292
100
100
98.47484
66.22005
42.82723
27.07237
16.33456
100
100
100
68.96017
42.29071
24.7251
14.05149
100
100
100
68.64479
39.03573
20.94439
11.17284
100
100
100
62.23915
32.48715
16.20525
8.718326
100
100
92.4683
50.77882
25.01516
12.4532
6.754144
100
100
76.48045
39.02846
19.41911
10.18397
5.628523
100
94.64736
60.34106
30.88767
16.64037
9.469897
5.132804
100
80.29861
48.20915
25.95271
15.16864
9.183283
5.49422
100
69.02867
40.7227
23.38675
14.61102
9.338439
6.067351
95.55008
60.74878
36.39569
22.18859
14.55898
9.680141
6.541176
89.1507
54.56689
33.79508
21.63185
14.68646
9.885673
6.71212
83.06261
50.40182
32.81504
21.95933
15.25525
10.148
6.709486
74.8192
47.10566
32.81345
22.97434
16.26215
10.68127
6.707161
65.16264
44.47706
33.5491
24.59954
17.68605
11.74879
7.01412
56.95945
42.63324
35.15073
26.49298
19.20571
12.67153
7.726961
51.18092
41.69687
37.46604
29.42858
21.46991
13.92598
8.469884
48.16836
41.45341
39.27753
32.40838
23.73838
15.08159
8.825226
47.90254
41.82577
41.15334
35.87757
26.8601
16.66634
8.972173
51.01195
43.5875
42.80941
39.44472
30.25593
18.5554
9.7674
58.50655
47.15953
44.48316
41.21345
34.12391
21.52752
11.00583
71.35784
53.33584
46.72995
42.08771
37.23221
25.50601
12.69428
88.13484
64.0538
51.9397
44.10932
38.89504
28.91473
15.95121
100
80.5289
62.56531
49.25031
40.22875
31.98797
20.0284
100
98.88191
80.73138
60.20121
45.42754
35.4433
24.20213
100
100
100
80.5971
59.56047
41.88532
28.66609
100
100
100
100
83.74894
58.61139
38.47729
100
100
100
100
100
89.95137
59.12197
100
100
100
100
100
100
94.61179
100
100
100
100
100
100
100
100
100
100
100
100
100
100
100
100
100
100
100
100
100
100
100
100
100
100
100
100
100
100
100
100
100
100
100
100
100
100
100
100
100
100
100
100
100
100
100
100
100
100
100
100
100
100
100
100
100
100
100
100
100
100
100
100
100
100
100
100
100
100
100
100
100
100
100
100
100
100
100
100
100
100
100
100
100
100
100
100
100
100
100
100
100
100
100
100
100
100
100
100
100
100
100
100
100
100
100
100
100
100
100
100
100
100
100
100
100
100
100
100
100
100
100
100
100
100
100
100
100
100
100
100
100
100
100
100
100
100
100
100
100
100
100
100
100
100
100
100
100
100
100
100
100
100
100
100
100
100
100
100
100
100
100
100
100
100
100
100
100
100
100
100
100
100
100
100
100
100
100
100
100
100
100
100
100
100
100
100
100
100
100
100
100
100
100
100
100
100
100
100
100
100
100
100
100
100
100
100
100
100
100
100
100
100
100
100
100
100
100
100
100
100
100
100
100
100
100
100
100
100
100
100
100
100
100
100
100
100
100
100
100
100
100
100
100
100
100
100
100
100
100
100
31.56634
52.94878
100
100
100
100
100
2.430002
19.51523
45.1723
100
100
100
100
100
100
100
100
100
100
100
100
100
100
100
100
100
100
100
100
100
100
100
100
100
100
100
100
100
100
100
100
100
100
100
100
100
100
100
100
100
100
100
100
100
90.33628
100
100
100
100
100
100
86.08412
100
100
100
100
100
100
84.71148
100
100
100
100
100
100
85.23688
100
100
100
100
100
100
86.81407
100
100
100
100
100
100
88.97542
100
100
100
100
100
100
91.27469
100
100
100
100
100
100
93.05767
100
100
100
100
100
100
95.11056
100
100
100
100
100
100
96.02344
100
100
100
100
100
100
89.7235
100
100
100
100
100
100
84.12912
100
100
100
100
100
100
77.0685
100
100
100
100
100
100
70.1257
100
100
100
100
100
100
63.27329
100
100
100
100
100
100
56.69685
100
100
100
100
100
100
51.14749
100
100
100
100
100
100
46.13933
100
100
100
100
100
100
41.55093
100
100
100
100
100
100
36.43007
100
100
100
100
100
100
31.86287
100
100
100
100
100
100
28.16952
100
100
100
100
100
93.28254
24.41319
100
100
100
100
100
83.17463
21.06176
100
100
100
100
100
73.95376
18.27495
100
100
100
100
100
64.69498
14.86142
100
100
100
100
90.02759
56.55479
12.15402
100
100
100
100
74.97832
43.75204
9.201907
100
100
100
78.99237
51.09183
27.38392
6.955062
96.49958
94.95791
64.90523
45.83499
30.31722
17.32002
6.33892
65.57938
57.90319
37.89305
27.44054
20.85274
15.63532
6.525804
40.39362
33.66678
21.91709
18.68696
21.58512
20.0967
8.42451
25.16011
20.34997
14.35854
13.46913
11.86256
7.02301
2.280646
16.45063
12.56651
8.381597
6.445042
3.857117
2.028975
1.317919
11.42141
7.932086
4.886322
3.561678
2.490261
2.036164
2.849614
9.099776
5.995419
3.950896
3.26006
3.596473
6.267204
8.708191
8.936402
5.487424
3.76943
3.563899
4.980566
5.27506
3.691226
8.933827
5.543892
4.0674
4.301784
7.329839
3.088995
1.247983
9.036191
5.487307
4.557526
6.093136
20.35167
1.336681
0.5023359
9.455779
5.89749
5.493707
10.1427
7.038631
0.7258846
0.3989108
10.1423
6.54703
6.490896
7.967127
1.492401
0.655895
0.6308029
9.677109
6.995378
6.792741
3.403059
0.8055404
1.044499
4.140343
8.413846
6.671574
5.463617
1.945813
0.6086371
1.200391
0.8604908
6.527729
5.693215
4.429222
1.40454
0.3744555
0.5995772
1.328546
4.908914
4.2481
3.637691
1.01477
0.2824714
0.4152251
1.179341
3.837936
3.501122
3.641026
0.7056126
0.3241906
0.5684075
0.6987237
3.090696
2.757266
3.681643
0.4846966
0.3345377
0.8813819
0.9964872
2.627612
1.945041
4.87719
0.3953966
0.4258865
0.947866
0.5499306
2.895576
1.941398
3.549125
0.4364794
0.6425657
0.8947339
0.3398813
3.480327
2.489487
1.621991
0.9706794
0.911062
0.3175795
0.1183525
3.944187
2.653683
1.618818
1.314063
0.569585
0.1572614
4.152749
2.889207
1.694969
1.165538
0.3751545
0.1702785
4.228425
3.488287
1.501847
0.7652631
0.4173484
0.2090232
4.134094
4.212871
1.446121
0.5746238
0.5735017
0.6234709
0.2680478
4.067442
3.818503
1.603606
0.5179267
0.6648366
0.7156986
0.7974444
4.167739
3.255259
1.534624
0.3688207
0.4850297
0.5567387
2.031195
4.816403
3.504574
1.159084
0.2420468
0.2993649
0.4464408
1.130542
5.052239
4.473982
0.9265689
0.2183103
0.2132855
0.2247424
1.118854
5.17659
4.861453
1.170078
0.2153713
0.1906147
0.2076022
0.9092164
5.258018
4.806119
1.778092
0.1904116
0.2608739
0.8894052
0.4782478
5.414531
4.600144
3.494564
0.2123472
0.3220474
2.21929
0.468763
5.865118
4.419636
6.851044
0.3314029
0.3096371
1.344387
4.546098
6.939087
4.452497
8.155915
0.4920019
0.5069051
0.605406
0.886236
8.642971
5.098854
8.849675
0.7124572
0.6773839
0.9088602
0.8719847
11.71663
6.557183
9.30928
1.082685
0.6021977
0.9963049
0.420257
15.77233
8.871985
11.45165
1.879238
0.5828047
0.9530674
0.4675522
20.63653
11.94962
14.60813
4.501671
0.7527701
0.8529304
0.9317562
32.48847
16.87561
17.10783
11.5921
2.580315
1.038949
1.534187
63.69834
31.3999
24.01042
22.92385
14.49801
5.671552
2.156214
100
71.0804
55.83632
51.61227
53.3445
40.52106
12.98904
100
100
100
100
100
100
75.07372
100
100
100
100
100
100
59.04918
100
100
100
100
100
99.61068
22.90055
100
100
100
100
100
90.64324
30.21689
100
100
100
100
100
84.60072
13.55044
100
100
100
100
100
92.48054
18.35846
100
100
100
100
100
97.71436
19.83341
100
100
100
100
100
100
23.78973
100
100
100
100
100
100
26.07013
100
100
100
100
100
100
28.7275
100
100
100
100
100
100
32.45197
100
100
100
100
100
100
37.02294
100
100
100
100
100
100
41.03246
100
100
100
100
100
100
45.36665
100
100
100
100
100
100
50.28666
100
100
100
100
100
100
55.71667
100
100
100
100
100
100
61.78392
100
100
100
100
100
100
68.35687
100
100
100
100
100
100
75.59192
100
100
100
100
100
100
82.93487
100
100
100
100
100
100
90.26577
100
100
100
100
100
100
97.71995
100
100
100
100
100
100
100
100
100
100
100
100
100
100
100
100
100
100
100
100
100
100
100
100
100
100
100
99.27737
100
100
100
100
100
100
95.82288
100
100
100
100
100
100
91.98858
100
100
100
100
100
100
88.49023
100
100
100
100
100
100
85.50617
100
100
100
100
100
100
83.57074
100
100
100
100
100
100
83.25402
100
100
100
100
100
100
84.98479
100
100
100
100
100
100
90.44263
100
100
100
100
100
100
100
100
100
100
100
100
100
100
100
100
100
100
100
100
100
5.984669e-11
8.963686e-10
2.207326e-09
3.612273e-09
5.345366e-09
9.368715e-09
2.248092e-08
1.81953e-08
2.031493e-08
1.855969e-08
1.670041e-08
1.520551e-08
1.401064e-08
1.304982e-08
1.231086e-08
1.16735e-08
1.116602e-08
1.074817e-08
5.860715e-11
1.67417e-09
3.130064e-09
4.219055e-09
5.698285e-09
1.007537e-08
2.310183e-08
1.988715e-08
2.085992e-08
1.790308e-08
1.624715e-08
1.498563e-08
1.386523e-08
1.293851e-08
1.221965e-08
1.159773e-08
1.110715e-08
1.069987e-08
5.856251e-11
2.955936e-09
4.774562e-09
5.112816e-09
6.303209e-09
1.077745e-08
2.517169e-08
2.18002e-08
2.123888e-08
1.702315e-08
1.565903e-08
1.454693e-08
1.357565e-08
1.272156e-08
1.20607e-08
1.144513e-08
1.099756e-08
1.060779e-08
5.880126e-11
3.527843e-09
6.119773e-09
5.843548e-09
6.811575e-09
1.123534e-08
2.550852e-08
2.302999e-08
2.127207e-08
1.632295e-08
1.490862e-08
1.395593e-08
1.315123e-08
1.242051e-08
1.1847e-08
1.121444e-08
1.083146e-08
1.04698e-08
5.892519e-11
3.669817e-09
7.086169e-09
6.4213e-09
7.28975e-09
1.152967e-08
2.509323e-08
2.251409e-08
2.013353e-08
1.584445e-08
1.410645e-08
1.323279e-08
1.263416e-08
1.203919e-08
1.157802e-08
1.092635e-08
1.062322e-08
1.029248e-08
5.902235e-11
3.58883e-09
7.909101e-09
6.883199e-09
7.672973e-09
1.172332e-08
2.377806e-08
2.013472e-08
1.84317e-08
1.532817e-08
1.335235e-08
1.263457e-08
1.207095e-08
1.157537e-08
1.126031e-08
1.06026e-08
1.037529e-08
1.008447e-08
5.911061e-11
3.56995e-09
8.681575e-09
7.284333e-09
8.016022e-09
1.190831e-08
2.005387e-08
1.808688e-08
1.681367e-08
1.448081e-08
1.284059e-08
1.197118e-08
1.150161e-08
1.11208e-08
1.087561e-08
1.027287e-08
1.01025e-08
9.845803e-09
5.922112e-11
3.470617e-09
9.383738e-09
7.601768e-09
8.310214e-09
1.197456e-08
1.790228e-08
1.60357e-08
1.525452e-08
1.347126e-08
1.226946e-08
1.135627e-08
1.093659e-08
1.066075e-08
1.04843e-08
9.923441e-09
9.80551e-09
9.589235e-09
5.933461e-11
3.441227e-09
9.812248e-09
7.827996e-09
8.536221e-09
1.196935e-08
1.646019e-08
1.383546e-08
1.378634e-08
1.264052e-08
1.164048e-08
1.069815e-08
1.042118e-08
1.019714e-08
1.008128e-08
9.567836e-09
9.494693e-09
9.31953e-09
5.94882e-11
3.270144e-09
1.037626e-08
7.981642e-09
8.673262e-09
1.179977e-08
1.486511e-08
1.311723e-08
1.241839e-08
1.176323e-08
1.057797e-08
1.008733e-08
9.931885e-09
9.754515e-09
9.674679e-09
9.211617e-09
9.177575e-09
9.035652e-09
5.966851e-11
3.099228e-09
1.070495e-08
7.957056e-09
8.623282e-09
1.137669e-08
1.335416e-08
1.239802e-08
1.127441e-08
1.039323e-08
9.82277e-09
9.556495e-09
9.441236e-09
9.292012e-09
9.283736e-09
8.844771e-09
8.862773e-09
8.74956e-09
5.980334e-11
2.914546e-09
1.044353e-08
7.604024e-09
8.345139e-09
1.074024e-08
1.204587e-08
1.137214e-08
1.011994e-08
9.590561e-09
9.254755e-09
9.003514e-09
8.945543e-09
8.862111e-09
8.900605e-09
8.492832e-09
8.541927e-09
8.459494e-09
5.990578e-11
2.757151e-09
7.44254e-09
6.983297e-09
7.990012e-09
1.016839e-08
1.102003e-08
1.04164e-08
9.441603e-09
9.071953e-09
8.704005e-09
8.503661e-09
8.484952e-09
8.457859e-09
8.528995e-09
8.144347e-09
8.224662e-09
8.168805e-09
6.034124e-11
2.097638e-09
6.9331e-09
6.833502e-09
7.993961e-09
9.777846e-09
1.01978e-08
9.651636e-09
8.905101e-09
8.551353e-09
8.213708e-09
8.059339e-09
8.068809e-09
8.067984e-09
8.166626e-09
7.805753e-09
7.913152e-09
7.879301e-09
6.158969e-11
1.796843e-09
7.892258e-09
7.044678e-09
8.093277e-09
9.522521e-09
9.595492e-09
8.990288e-09
8.356751e-09
8.066353e-09
7.783517e-09
7.657498e-09
7.677756e-09
7.690459e-09
7.81379e-09
7.477673e-09
7.606712e-09
7.593025e-09
6.045331e-11
1.884012e-09
8.367521e-09
7.325772e-09
8.274434e-09
9.329231e-09
8.972631e-09
8.399445e-09
7.84495e-09
7.626461e-09
7.373108e-09
7.275785e-09
7.300067e-09
7.330761e-09
7.466898e-09
7.16179e-09
7.306389e-09
7.311439e-09
6.07323e-11
1.8792e-09
8.908874e-09
7.648249e-09
8.426218e-09
8.997194e-09
8.408505e-09
7.842537e-09
7.373135e-09
7.190893e-09
6.96867e-09
6.9126e-09
6.943545e-09
6.987222e-09
7.117349e-09
6.863425e-09
7.012137e-09
7.033121e-09
6.102182e-11
1.819381e-09
8.292888e-09
7.288682e-09
8.182246e-09
8.54891e-09
7.799548e-09
7.30129e-09
6.899327e-09
6.757677e-09
6.583785e-09
6.565701e-09
6.60331e-09
6.661459e-09
6.750421e-09
6.589561e-09
6.721281e-09
6.758629e-09
6.136726e-11
1.72499e-09
7.375313e-09
7.848434e-09
7.76141e-09
7.553291e-09
7.123781e-09
6.76357e-09
6.422208e-09
6.333199e-09
6.223045e-09
6.229345e-09
6.272533e-09
6.342486e-09
6.391426e-09
6.327703e-09
6.434636e-09
6.489131e-09
6.170459e-11
1.640226e-09
6.198673e-09
7.504505e-09
7.216743e-09
7.084379e-09
6.469309e-09
6.208138e-09
5.963621e-09
5.933308e-09
5.882004e-09
5.901433e-09
5.948448e-09
6.002208e-09
6.033767e-09
6.106008e-09
6.167225e-09
6.222657e-09
6.207137e-11
1.554097e-09
5.39026e-09
6.888561e-09
6.843382e-09
6.074311e-09
5.962782e-09
5.736598e-09
5.522242e-09
5.563802e-09
5.552259e-09
5.583056e-09
5.640611e-09
5.705942e-09
5.727457e-09
5.875526e-09
5.884772e-09
5.960376e-09
6.246545e-11
1.485964e-09
4.819244e-09
6.320665e-09
6.253882e-09
5.732297e-09
5.276913e-09
5.257579e-09
5.143579e-09
5.225713e-09
5.233117e-09
5.273733e-09
5.340207e-09
5.415567e-09
5.459242e-09
5.571656e-09
5.620969e-09
5.706562e-09
6.289956e-11
1.411049e-09
4.318424e-09
5.76987e-09
5.661608e-09
5.153107e-09
4.951963e-09
4.766432e-09
4.803201e-09
4.906815e-09
4.922321e-09
4.974603e-09
5.049436e-09
5.138215e-09
5.162522e-09
5.303961e-09
5.361908e-09
5.451798e-09
6.338234e-11
1.342636e-09
3.894908e-09
5.22792e-09
5.092836e-09
4.622791e-09
4.491253e-09
4.436556e-09
4.458311e-09
4.587098e-09
4.633125e-09
4.684153e-09
4.770412e-09
4.893885e-09
4.86841e-09
5.03328e-09
5.106694e-09
5.204241e-09
6.390596e-11
1.281806e-09
3.543151e-09
4.734032e-09
4.547232e-09
4.17741e-09
4.09581e-09
4.142667e-09
4.121098e-09
4.262741e-09
4.340274e-09
4.417038e-09
4.495296e-09
4.693168e-09
4.592132e-09
4.805855e-09
4.864742e-09
4.964598e-09
6.4483e-11
1.223688e-09
3.232393e-09
4.286215e-09
3.99171e-09
3.78543e-09
3.75125e-09
3.806386e-09
3.820073e-09
3.961026e-09
4.059741e-09
4.147811e-09
4.247997e-09
4.54419e-09
4.275381e-09
4.490895e-09
4.613924e-09
4.731787e-09
6.511788e-11
1.167957e-09
2.97028e-09
3.929022e-09
3.40656e-09
3.434614e-09
3.448013e-09
3.481823e-09
3.559064e-09
3.6902e-09
3.78308e-09
3.885721e-09
4.004674e-09
4.19052e-09
4.055621e-09
4.290487e-09
4.37462e-09
4.506154e-09
6.582137e-11
1.111175e-09
2.737608e-09
3.735156e-09
2.796675e-09
3.166632e-09
3.155406e-09
3.183572e-09
3.34189e-09
3.430065e-09
3.529327e-09
3.63043e-09
3.760157e-09
3.866455e-09
3.863349e-09
4.038984e-09
4.151109e-09
4.318307e-09
6.660468e-11
1.049085e-09
2.465059e-09
3.664277e-09
2.301635e-09
2.972426e-09
2.888339e-09
2.906882e-09
3.169356e-09
3.168132e-09
3.281942e-09
3.38724e-09
3.517765e-09
3.581266e-09
3.707569e-09
3.826854e-09
3.930945e-09
4.112722e-09
6.751176e-11
9.749799e-10
2.042956e-09
3.73828e-09
2.185555e-09
2.53025e-09
2.607069e-09
2.66459e-09
2.907152e-09
2.905853e-09
3.047065e-09
3.166526e-09
3.295283e-09
3.342627e-09
3.511518e-09
3.591318e-09
3.723666e-09
4.021969e-09
6.860861e-11
8.88517e-10
1.624674e-09
3.600701e-09
2.243012e-09
2.07142e-09
2.32778e-09
2.331898e-09
2.644996e-09
2.748021e-09
2.856371e-09
2.96605e-09
3.1076e-09
3.125511e-09
3.269756e-09
3.378736e-09
3.527354e-09
3.634802e-09
7.00515e-11
7.90049e-10
1.438713e-09
2.215031e-09
2.334983e-09
1.98428e-09
2.123969e-09
2.215012e-09
2.386845e-09
2.571989e-09
2.675138e-09
2.772616e-09
2.94381e-09
2.895605e-09
3.077967e-09
3.173588e-09
3.318698e-09
3.303162e-09
7.163353e-11
8.087104e-10
1.46661e-09
1.318648e-09
2.454449e-09
1.846605e-09
1.976166e-09
2.04849e-09
2.219631e-09
2.404972e-09
2.511241e-09
2.596886e-09
2.695711e-09
2.728851e-09
2.83105e-09
2.972519e-09
3.189229e-09
3.1111e-09
7.545675e-11
6.402115e-10
1.044391e-09
1.082452e-09
1.402873e-09
2.051368e-09
1.91499e-09
1.938359e-09
2.237654e-09
2.258685e-09
2.340648e-09
2.418059e-09
2.50115e-09
2.544516e-09
2.656247e-09
2.791308e-09
2.816636e-09
2.996644e-09
7.703596e-11
5.356779e-10
9.139315e-10
1.138422e-09
1.107996e-09
1.889401e-09
1.825376e-09
2.109297e-09
2.063371e-09
2.001976e-09
2.132165e-09
2.232844e-09
2.260197e-09
2.383878e-09
2.480294e-09
2.591336e-09
2.511402e-09
2.909915e-09
8.204176e-11
4.24535e-10
8.027454e-10
1.064782e-09
1.254317e-09
1.53675e-09
1.679621e-09
1.865691e-09
1.79403e-09
1.902721e-09
1.96752e-09
2.048664e-09
2.009634e-09
2.247289e-09
2.290917e-09
2.486749e-09
2.425768e-09
2.636167e-09
8.964103e-11
2.800596e-10
7.890092e-10
8.946326e-10
1.12286e-09
1.434721e-09
1.594626e-09
1.711742e-09
1.720844e-09
1.748846e-09
1.797396e-09
1.88252e-09
1.890592e-09
2.038648e-09
2.144791e-09
2.193983e-09
2.272718e-09
2.474948e-09
1.219603e-10
1.628321e-10
7.75762e-10
8.298813e-10
1.111795e-09
1.422139e-09
1.521737e-09
1.564941e-09
1.568772e-09
1.594451e-09
1.633099e-09
1.619362e-09
1.733695e-09
1.795919e-09
1.917425e-09
1.89719e-09
2.166435e-09
2.256443e-09
1.618373e-10
1.203417e-10
7.11828e-10
1.083003e-09
1.353776e-09
1.455824e-09
1.435659e-09
1.431382e-09
1.42399e-09
1.43403e-09
1.472098e-09
1.469326e-09
1.598664e-09
1.630172e-09
1.653176e-09
1.804552e-09
1.946358e-09
2.074695e-09
1.41065e-05
1.241768e-10
3.89836e-10
8.482669e-10
1.321388e-09
1.346491e-09
1.307332e-09
1.292506e-09
1.271334e-09
1.283358e-09
1.320921e-09
1.2998e-09
1.439104e-09
1.491864e-09
1.527775e-09
1.67774e-09
1.75432e-09
1.877131e-09
0.002940392
8.560786e-11
5.391939e-10
9.660993e-10
1.161016e-09
1.215517e-09
1.140591e-09
1.138729e-09
1.123207e-09
1.146366e-09
1.180397e-09
1.189191e-09
1.285865e-09
1.392871e-09
1.381835e-09
1.468638e-09
1.595252e-09
1.702948e-09
0.05460545
7.449205e-11
6.390496e-10
9.833964e-10
1.033459e-09
1.044115e-09
9.74523e-10
9.795101e-10
9.873989e-10
1.006034e-09
9.826883e-10
1.095027e-09
1.126658e-09
1.207579e-09
1.218549e-09
1.357996e-09
1.456215e-09
1.561185e-09
0.0632493
7.481352e-11
5.016487e-10
8.671781e-10
8.388801e-10
8.64156e-10
8.503509e-10
8.509645e-10
8.589378e-10
8.868381e-10
8.781847e-10
1.000698e-09
1.003788e-09
1.047496e-09
1.102864e-09
1.225523e-09
1.323539e-09
1.407536e-09
0.06634437
7.80055e-11
6.535931e-10
9.22773e-10
7.419048e-10
7.213119e-10
7.427315e-10
7.413615e-10
7.440706e-10
7.695509e-10
7.437082e-10
8.850904e-10
8.374367e-10
9.82978e-10
1.008213e-09
1.112883e-09
1.182558e-09
1.296421e-09
0.0660969
6.845072e-11
1.031134e-09
9.910491e-10
7.872058e-10
6.429812e-10
6.463703e-10
6.437144e-10
6.446723e-10
7.098206e-10
6.84696e-10
7.20768e-10
7.265695e-10
9.038716e-10
9.19319e-10
9.914643e-10
1.081714e-09
1.173186e-09
0.05797205
7.1053e-11
1.098942e-09
9.595303e-10
7.128111e-10
5.5766e-10
5.502288e-10
5.455797e-10
5.415225e-10
5.749169e-10
5.835621e-10
6.117264e-10
7.1674e-10
7.44051e-10
8.035448e-10
9.063676e-10
9.833011e-10
1.113236e-09
0.3355946
7.250753e-11
6.664052e-10
9.663068e-10
5.251216e-10
5.051483e-10
4.605316e-10
4.604495e-10
4.576593e-10
4.786064e-10
5.234864e-10
5.358569e-10
6.298756e-10
6.384918e-10
7.451531e-10
8.055458e-10
8.902252e-10
9.9291e-10
0.0711695
7.986769e-11
5.395908e-10
9.080913e-10
4.177052e-10
4.054155e-10
3.838639e-10
3.76317e-10
3.779665e-10
4.156306e-10
4.203725e-10
4.494678e-10
5.303372e-10
5.866454e-10
6.432128e-10
7.355656e-10
7.856696e-10
9.188444e-10
0.1801152
1.461807e-10
4.980184e-10
2.196e-10
3.331152e-10
3.169523e-10
3.104361e-10
2.977745e-10
2.933316e-10
3.382357e-10
3.379112e-10
3.862444e-10
4.623524e-10
4.944055e-10
5.686127e-10
6.335095e-10
7.414005e-10
8.421827e-10
0.3496301
1.534662e-10
5.38357e-10
1.668273e-10
2.695249e-10
2.735969e-10
3.092506e-10
3.321609e-10
3.791365e-10
4.3549e-10
5.005841e-10
5.900398e-10
6.693435e-10
8.011966e-10
0.6390222
0.002331999
1.997593e-10
3.031443e-10
3.085484e-10
3.903074e-10
4.438939e-10
5.385956e-10
5.839652e-10
7.435117e-10
0.7751552
1.928583e-10
2.971681e-10
3.273673e-10
4.024961e-10
4.710744e-10
5.495974e-10
6.832706e-10
2.476385e-10
2.873934e-10
3.61179e-10
4.464255e-10
5.071851e-10
6.448378e-10
2.533275e-10
3.193148e-10
4.090774e-10
5.076128e-10
5.980658e-10
2.786321e-10
3.00427e-10
3.965327e-10
4.829057e-10
5.746649e-10
2.38735e-10
2.885565e-10
3.734757e-10
4.643339e-10
5.626219e-10
2.283186e-10
2.852416e-10
3.667116e-10
4.626171e-10
5.566633e-10
2.366396e-10
2.945364e-10
3.694463e-10
4.717459e-10
5.590195e-10
2.489293e-10
3.117974e-10
3.919375e-10
4.881307e-10
5.835821e-10
2.238262e-10
2.525936e-10
3.349114e-10
4.062066e-10
5.3114e-10
6.163769e-10
0.1941233
2.832956e-10
2.682859e-10
3.741445e-10
4.606574e-10
5.355704e-10
6.691807e-10
0.1783629
0.0142258
2.574744e-10
3.044054e-10
3.358733e-10
4.025551e-10
4.993987e-10
5.711176e-10
7.12511e-10
0.07115191
2.196892e-10
5.378393e-10
2.004276e-10
2.405034e-10
3.053881e-10
3.476629e-10
4.274861e-10
4.461823e-10
5.748706e-10
6.153107e-10
7.476926e-10
0.0718341
1.2499e-10
2.191422e-10
4.639402e-10
3.339557e-10
2.973701e-10
2.682628e-10
2.520868e-10
2.924254e-10
2.770456e-10
3.38331e-10
3.440711e-10
4.029508e-10
4.63228e-10
5.231134e-10
6.28937e-10
6.975503e-10
8.366669e-10
0.02767488
9.689718e-11
3.823797e-10
2.931786e-10
2.814564e-10
3.237614e-10
3.247921e-10
3.14366e-10
3.690487e-10
3.442169e-10
3.897628e-10
4.170566e-10
4.684471e-10
5.352932e-10
6.006123e-10
6.944401e-10
7.688487e-10
8.97881e-10
0.0114628
8.286418e-11
1.829195e-10
3.029925e-10
3.568294e-10
3.555126e-10
3.867337e-10
4.019117e-10
4.130359e-10
4.183996e-10
4.629267e-10
5.1177e-10
5.587712e-10
6.029537e-10
7.035611e-10
7.539758e-10
8.779238e-10
9.412464e-10
0.03472531
7.751709e-11
3.152345e-10
2.707261e-10
3.659902e-10
4.455129e-10
4.469876e-10
4.730606e-10
4.86167e-10
5.085042e-10
5.486182e-10
5.580316e-10
6.68317e-10
7.109884e-10
7.609641e-10
8.61545e-10
9.33902e-10
1.091423e-09
0.02992881
8.157505e-11
4.884648e-10
3.885799e-10
4.894915e-10
5.311374e-10
5.32525e-10
5.553812e-10
5.717849e-10
6.004176e-10
6.779583e-10
6.320297e-10
7.316401e-10
8.039631e-10
8.670874e-10
9.420785e-10
1.075465e-09
1.161866e-09
0.09346917
9.055357e-11
6.276888e-10
4.736344e-10
5.284936e-10
5.734631e-10
6.194314e-10
6.439585e-10
6.731783e-10
6.983881e-10
7.181428e-10
7.721282e-10
8.499622e-10
8.959232e-10
9.859296e-10
1.049042e-09
1.136566e-09
1.327462e-09
0.04825067
8.220877e-11
4.853908e-10
5.718917e-10
6.741117e-10
6.655486e-10
7.147038e-10
7.409103e-10
7.638397e-10
7.822215e-10
7.946907e-10
8.679517e-10
9.418404e-10
1.025247e-09
1.101125e-09
1.187629e-09
1.25608e-09
1.411707e-09
0.007722126
8.870262e-11
5.404517e-10
8.302664e-10
8.584503e-10
8.741991e-10
8.215835e-10
8.451011e-10
8.701446e-10
9.009494e-10
9.289888e-10
1.022995e-09
1.035191e-09
1.18684e-09
1.193482e-09
1.283526e-09
1.39522e-09
1.490066e-09
0.001809074
1.136772e-10
9.982793e-10
1.077538e-09
1.094047e-09
1.025471e-09
9.901749e-10
9.76377e-10
9.958179e-10
1.028289e-09
1.038856e-09
1.117023e-09
1.185525e-09
1.340894e-09
1.396078e-09
1.420278e-09
1.525889e-09
1.603465e-09
7.998443e-05
1.197292e-10
1.108506e-09
1.912253e-09
1.570718e-09
1.253144e-09
1.15752e-09
1.102702e-09
1.13139e-09
1.155436e-09
1.180511e-09
1.289531e-09
1.297898e-09
1.412284e-09
1.456735e-09
1.551957e-09
1.647969e-09
1.776803e-09
1.234419e-10
2.538281e-10
1.181098e-09
1.777049e-09
1.502145e-09
1.33069e-09
1.278045e-09
1.216361e-09
1.266366e-09
1.298864e-09
1.323244e-09
1.433178e-09
1.450517e-09
1.538793e-09
1.613057e-09
1.709994e-09
1.803088e-09
1.925185e-09
1.082321e-10
3.81398e-10
1.633086e-09
1.951858e-09
1.610016e-09
1.363464e-09
1.406676e-09
1.322345e-09
1.406073e-09
1.44578e-09
1.466317e-09
1.53583e-09
1.583026e-09
1.655615e-09
1.712779e-09
1.825118e-09
1.962175e-09
2.078918e-09
7.775939e-11
1.182164e-09
2.25871e-09
2.289784e-09
2.044766e-09
1.396586e-09
1.568547e-09
1.55316e-09
1.526108e-09
1.567857e-09
1.600585e-09
1.627581e-09
1.726153e-09
1.834653e-09
1.902447e-09
2.039341e-09
2.100148e-09
2.244124e-09
7.423076e-11
1.270687e-09
1.948318e-09
2.45799e-09
1.603052e-09
1.562879e-09
1.769231e-09
1.866856e-09
1.792233e-09
1.763467e-09
1.75265e-09
1.793578e-09
1.948702e-09
1.972416e-09
2.066287e-09
2.216893e-09
2.358825e-09
2.377685e-09
7.157416e-11
9.372408e-10
1.823477e-09
1.922766e-09
1.277025e-09
2.185731e-09
2.082169e-09
1.843315e-09
1.990814e-09
1.931315e-09
2.005225e-09
2.004785e-09
2.094576e-09
2.160299e-09
2.275847e-09
2.429843e-09
2.534465e-09
2.600582e-09
6.705599e-11
8.198535e-10
1.527644e-09
1.268144e-09
2.234943e-09
1.980292e-09
2.049712e-09
2.122597e-09
2.107657e-09
2.083434e-09
2.161855e-09
2.204749e-09
2.288175e-09
2.380188e-09
2.453339e-09
2.590845e-09
2.595107e-09
2.794068e-09
6.765301e-11
1.287085e-09
1.817614e-09
1.476954e-09
2.103923e-09
2.233992e-09
2.203446e-09
2.300864e-09
2.254034e-09
2.318873e-09
2.379149e-09
2.411913e-09
2.504133e-09
2.582265e-09
2.634024e-09
2.744875e-09
2.813106e-09
2.985056e-09
6.72858e-11
1.286891e-09
2.014248e-09
1.818319e-09
2.902074e-09
2.271226e-09
2.343536e-09
2.479301e-09
2.3462e-09
2.463726e-09
2.556599e-09
2.599674e-09
2.689534e-09
2.729129e-09
2.859664e-09
2.962104e-09
3.080713e-09
3.311144e-09
6.669678e-11
1.288526e-09
2.353619e-09
2.260624e-09
2.809399e-09
2.41693e-09
2.538661e-09
2.663262e-09
2.71914e-09
2.642365e-09
2.740811e-09
2.802978e-09
2.864013e-09
2.958359e-09
3.043479e-09
3.174832e-09
3.308763e-09
3.4754e-09
6.61001e-11
1.307998e-09
2.795167e-09
2.407334e-09
2.752604e-09
2.785427e-09
2.763637e-09
2.874618e-09
2.882735e-09
2.910846e-09
2.964114e-09
3.02088e-09
3.090383e-09
3.19984e-09
3.233671e-09
3.367262e-09
3.490998e-09
3.617464e-09
6.552129e-11
1.342235e-09
3.13362e-09
2.596437e-09
2.865478e-09
2.904053e-09
2.980569e-09
3.087788e-09
3.159617e-09
3.155477e-09
3.197391e-09
3.251907e-09
3.326513e-09
3.481873e-09
3.407246e-09
3.610564e-09
3.711443e-09
3.886854e-09
6.497987e-11
1.37856e-09
3.466552e-09
2.737639e-09
3.056162e-09
3.076858e-09
3.184948e-09
3.311619e-09
3.391534e-09
3.398545e-09
3.43811e-09
3.489909e-09
3.561979e-09
3.705241e-09
3.663091e-09
3.830965e-09
3.93982e-09
4.095312e-09
6.448192e-11
1.415746e-09
3.801712e-09
2.904625e-09
3.235569e-09
3.264726e-09
3.384704e-09
3.53913e-09
3.62881e-09
3.651294e-09
3.689565e-09
3.738507e-09
3.81458e-09
3.939136e-09
3.928517e-09
4.06765e-09
4.163621e-09
4.252608e-09
6.402167e-11
1.454368e-09
4.133924e-09
3.087056e-09
3.405641e-09
3.472317e-09
3.603108e-09
3.749376e-09
3.881332e-09
3.913129e-09
3.949385e-09
3.998763e-09
4.07255e-09
4.169403e-09
4.168816e-09
4.278308e-09
4.388876e-09
4.507841e-09
6.360248e-11
1.488175e-09
4.508871e-09
3.275425e-09
3.555807e-09
3.690841e-09
3.824057e-09
3.973614e-09
4.137941e-09
4.1926e-09
4.216626e-09
4.282006e-09
4.331719e-09
4.468405e-09
4.413364e-09
4.571557e-09
4.640731e-09
4.753864e-09
6.322798e-11
1.527912e-09
4.830077e-09
3.459766e-09
3.706888e-09
3.916671e-09
4.057959e-09
4.211038e-09
4.365507e-09
4.483268e-09
4.514831e-09
4.55495e-09
4.60513e-09
4.683952e-09
4.643637e-09
4.783898e-09
4.889318e-09
4.992977e-09
6.286833e-11
1.568366e-09
5.233778e-09
3.654e-09
3.869004e-09
4.150766e-09
4.286456e-09
4.441213e-09
4.600329e-09
4.766258e-09
4.805138e-09
4.847301e-09
4.883506e-09
4.909219e-09
4.943373e-09
5.030108e-09
5.139928e-09
5.236798e-09
6.257014e-11
1.592223e-09
5.602103e-09
3.850162e-09
4.049639e-09
4.392804e-09
4.45953e-09
4.70444e-09
4.837265e-09
5.025606e-09
5.117355e-09
5.146577e-09
5.174679e-09
5.190739e-09
5.240187e-09
5.305059e-09
5.402742e-09
5.483204e-09
6.229454e-11
1.625267e-09
6.043632e-09
4.102514e-09
4.255341e-09
4.426876e-09
4.740443e-09
4.920714e-09
5.124612e-09
5.292174e-09
5.416155e-09
5.453493e-09
5.475402e-09
5.493101e-09
5.536948e-09
5.531986e-09
5.651017e-09
5.738373e-09
6.206564e-11
1.654586e-09
6.657603e-09
4.400515e-09
4.138036e-09
4.695926e-09
4.97135e-09
5.217545e-09
5.388929e-09
5.55647e-09
5.712164e-09
5.765037e-09
5.783387e-09
5.799632e-09
5.939922e-09
5.739028e-09
5.940074e-09
6.001665e-09
6.184673e-11
1.688669e-09
7.379744e-09
4.141956e-09
4.391416e-09
4.95176e-09
5.293249e-09
5.441615e-09
5.667538e-09
5.837802e-09
6.000864e-09
6.090971e-09
6.095361e-09
6.094885e-09
6.2264e-09
6.045997e-09
6.213563e-09
6.267972e-09
6.162271e-11
1.680021e-09
6.235264e-09
4.533586e-09
4.67378e-09
5.208691e-09
5.432548e-09
5.731909e-09
5.974948e-09
6.140245e-09
6.29892e-09
6.429335e-09