/*--------------------------------*- C++ -*----------------------------------*\
| =========                 |                                                 |
| \\      /  F ield         | OpenFOAM: The Open Source CFD Toolbox           |
|  \\    /   O peration     | Version:  2206                                  |
|   \\  /    A nd           | Website:  www.openfoam.com                      |
|    \\/     M anipulation  |                                                 |
\*---------------------------------------------------------------------------*/
FoamFile
{
    version     2.0;
    format      ascii;
    arch        "LSB;label=32;scalar=64";
    class       volScalarField;
    location    "2.4";
    object      omega.b;
}
// * * * * * * * * * * * * * * * * * * * * * * * * * * * * * * * * * * * * * //

dimensions      [0 0 -1 0 0 0 0];

internalField   nonuniform List<scalar> 
13078
(
6.495683
0.3925733
0.2708056
0.2692572
0.2698506
0.2706116
0.2714993
6.57947
0.3767736
0.2699384
0.2691589
0.2698197
0.2705893
0.2714783
6.585492
0.3694986
0.2697319
0.2690864
0.2697749
0.2705575
0.2714513
6.591679
0.3667835
0.2696265
0.2690311
0.2697322
0.2705242
0.2714223
6.598133
0.3658525
0.2695693
0.2690011
0.2696971
0.2704928
0.2713938
6.604802
0.36541
0.2695402
0.2689824
0.2696805
0.2704663
0.2713668
6.611848
0.3652415
0.2695389
0.2689695
0.269669
0.2704555
0.2713432
6.619131
0.3652216
0.2695491
0.2689631
0.2696624
0.2704482
0.2713352
6.626655
0.3652362
0.2695474
0.2689613
0.2696588
0.2704432
0.2713295
6.634488
0.3653178
0.2695491
0.2689609
0.2696567
0.2704398
0.2713252
6.642682
0.3654444
0.2695521
0.2689612
0.2696555
0.2704374
0.2713217
6.651186
0.3656043
0.2695556
0.2689617
0.2696548
0.2704355
0.2713188
6.660084
0.3657907
0.2695596
0.2689621
0.2696543
0.2704339
0.2713162
6.669375
0.3660007
0.2695638
0.2689623
0.2696535
0.2704324
0.2713137
6.679072
0.3662311
0.2695692
0.2689589
0.2696474
0.2704303
0.2713113
6.689206
0.3664809
0.2695751
0.2689545
0.2696427
0.2704285
0.2713088
6.69983
0.3667489
0.2695801
0.268954
0.2696415
0.2704268
0.2713063
6.710875
0.3670348
0.2695856
0.2689536
0.2696404
0.2704251
0.2713036
6.722538
0.3673414
0.2695915
0.2689532
0.269639
0.2704227
0.2713008
6.734686
0.3676675
0.2695977
0.2689523
0.269632
0.2704122
0.2712969
6.747501
0.3680167
0.2696045
0.2689513
0.2696233
0.2704038
0.2712931
6.760848
0.3683896
0.269612
0.2689509
0.2696209
0.2704008
0.2712896
6.77492
0.3687896
0.2696201
0.2689502
0.2696191
0.2703977
0.2712849
6.789678
0.3692201
0.2696292
0.2689496
0.2696163
0.2703865
0.271269
6.805169
0.369685
0.2696394
0.2689491
0.2696136
0.270372
0.2712558
6.821431
0.3701898
0.2696509
0.2689487
0.2696115
0.2703674
0.2712498
6.838694
0.3707319
0.269664
0.2689485
0.2696093
0.2703632
0.2712448
6.860782
0.3713712
0.2696805
0.2689485
0.269607
0.2703575
0.2712265
6.889513
0.3719744
0.2696964
0.2689489
0.2696048
0.270352
0.2712007
6.964902
0.3734086
0.2697349
0.2689498
0.269603
0.2703481
0.2711944
7.077898
0.3751138
0.2697432
0.26895
0.2696011
0.2703436
0.2711838
7.116328
0.3777306
0.2697462
0.2689476
0.2695983
0.2703395
0.2711756
7.153721
0.3810378
0.2698666
0.2689541
0.2695923
0.2703345
0.2711696
7.186841
0.3823774
0.2699354
0.2689602
0.2695834
0.2703222
0.2711582
7.221337
0.3837173
0.2699705
0.2689462
0.2695959
0.2702965
0.2711363
7.257502
0.3850503
0.2700044
0.26889
0.2695546
0.2702929
0.2711124
7.295301
0.3862851
0.27002
0.2688594
0.2694697
0.2702801
0.271112
7.335033
0.3873849
0.2700136
0.2688169
0.2694297
0.2702352
0.2711534
7.385167
0.38833
0.2700005
0.2687692
0.2693871
0.2701609
0.2711986
7.498023
0.3902026
0.2699965
0.2687011
0.2693519
0.2701508
0.2712306
7.673722
0.3950235
0.2698929
0.268621
0.2692794
0.2700915
0.2711375
7.748893
0.3996789
0.2699288
0.2684536
0.2691253
0.2699777
0.2711297
7.810544
0.4014626
0.2698294
0.2682266
0.2689352
0.2698841
0.2711029
7.87836
0.4028642
0.2696024
0.2679945
0.2687926
0.2698025
0.2710122
7.986778
0.4045627
0.2694115
0.2678429
0.2686396
0.2696895
0.270827
8.166375
0.4080907
0.2692393
0.2677005
0.2684726
0.2694453
0.2705757
8.255057
0.411763
0.2692432
0.2675768
0.2681858
0.2690781
0.2701309
8.326489
0.4124829
0.2690162
0.2673795
0.2678992
0.2686872
0.2695527
8.392909
0.4126401
0.2687115
0.2670411
0.2675613
0.2683349
0.2691198
8.455012
0.4124451
0.2683724
0.2667011
0.2671762
0.2678381
0.2686858
8.545774
0.4148429
0.2681401
0.2663997
0.2668102
0.2673786
0.2681472
8.78627
0.4205926
0.2680984
0.2663076
0.266656
0.2671413
0.2677526
8.872109
0.4215552
0.2678581
0.2659219
0.2663467
0.2669396
0.2675979
8.908262
0.4215827
0.2676045
0.2656564
0.2660994
0.2667438
0.267432
8.926063
0.4217616
0.2674494
0.2655101
0.2659727
0.2665955
0.2672458
8.928144
0.4214757
0.2672879
0.265334
0.2657898
0.2663788
0.2670693
8.926839
0.4200528
0.2671079
0.2651561
0.2656284
0.2662357
0.2668814
8.924368
0.418417
0.26719
0.2653169
0.2657441
0.2663136
0.2669319
8.90649
0.4166781
0.2672978
0.2654678
0.2658345
0.266365
0.2669159
8.869146
0.4147315
0.2673561
0.2655615
0.2658583
0.2663346
0.2668748
8.782673
0.4123444
0.2674447
0.2657563
0.2660773
0.2665474
0.2670752
8.542337
0.4061705
0.267616
0.2660987
0.2663621
0.266776
0.2673403
8.452994
0.4036855
0.2678365
0.2662818
0.2665572
0.2669886
0.2675843
8.391659
0.4036636
0.268124
0.2665413
0.2667851
0.2673157
0.2679183
8.326375
0.4040187
0.26844
0.266854
0.2671831
0.2678414
0.2684261
8.255057
0.4049628
0.2688164
0.2672315
0.2676418
0.2682136
0.26893
8.166375
0.403364
0.2690684
0.2675351
0.268037
0.2686663
0.269479
7.986778
0.4011592
0.2693772
0.2678694
0.2683953
0.2691606
0.2698996
7.87836
0.4003239
0.269602
0.2681489
0.2688049
0.2694887
0.2703284
7.810544
0.3994629
0.269817
0.2683713
0.2690623
0.2697984
0.2706959
7.749107
0.3979789
0.2699355
0.2685578
0.2692128
0.2700821
0.271003
7.678125
0.3943193
0.2699293
0.2686805
0.2693445
0.2701614
0.2711441
7.535471
0.3906131
0.269981
0.2687705
0.2694103
0.2701782
0.2712426
7.439013
0.3887801
0.2699957
0.2688225
0.2694281
0.2701846
0.2712144
7.38864
0.3876534
0.2700013
0.2688587
0.2694595
0.2702631
0.2711505
7.344497
0.3858406
0.2699767
0.2688875
0.269523
0.270304
0.271107
7.300796
0.3841938
0.2699559
0.2689082
0.269582
0.2702939
0.2711246
7.237692
0.3827118
0.2699273
0.2689485
0.269596
0.2703097
0.2711488
7.19073
0.3813773
0.269894
0.2689566
0.2695864
0.2703264
0.2711623
7.154755
0.3802486
0.269833
0.2689498
0.2695919
0.2703341
0.2711696
7.116393
0.3771211
0.2697219
0.2689456
0.2695968
0.2703382
0.2711752
7.077898
0.3746607
0.2697261
0.2689476
0.2695994
0.2703424
0.2711832
6.964902
0.3731168
0.2697226
0.2689476
0.2696013
0.270347
0.2711934
6.889513
0.3717444
0.2696879
0.268947
0.2696034
0.270351
0.2712002
6.860782
0.3712118
0.2696747
0.2689468
0.2696057
0.2703565
0.2712251
6.838694
0.370622
0.2696602
0.2689471
0.2696081
0.2703621
0.2712434
6.821431
0.3701167
0.2696485
0.2689476
0.2696105
0.2703664
0.2712488
6.805169
0.3696379
0.2696381
0.2689482
0.2696127
0.2703713
0.2712548
6.789678
0.3691906
0.2696286
0.2689488
0.2696156
0.2703856
0.2712682
6.774919
0.3687719
0.26962
0.2689495
0.2696184
0.2703969
0.2712843
6.760848
0.3683794
0.2696121
0.2689503
0.2696203
0.2704002
0.271289
6.747501
0.3680109
0.2696048
0.2689509
0.2696228
0.2704033
0.2712925
6.734686
0.3676638
0.2695981
0.2689521
0.2696317
0.2704119
0.2712966
6.722538
0.3673382
0.2695919
0.2689531
0.2696388
0.2704225
0.2713005
6.710875
0.3670307
0.2695862
0.2689536
0.2696403
0.2704249
0.2713033
6.69983
0.3667425
0.2695807
0.2689541
0.2696415
0.2704267
0.271306
6.689206
0.366471
0.2695756
0.2689548
0.2696427
0.2704284
0.2713086
6.679072
0.3662162
0.2695697
0.2689593
0.2696476
0.2704303
0.2713111
6.669375
0.365979
0.2695643
0.2689628
0.2696538
0.2704324
0.2713135
6.660084
0.3657597
0.26956
0.2689628
0.2696546
0.2704338
0.2713158
6.651186
0.3655604
0.2695558
0.2689624
0.269655
0.2704351
0.2713181
6.642682
0.3653825
0.269552
0.2689619
0.2696555
0.2704366
0.2713205
6.634488
0.3652303
0.2695485
0.2689615
0.2696562
0.2704384
0.2713233
6.626655
0.3651109
0.2695458
0.2689612
0.2696572
0.2704407
0.2713266
6.619131
0.3650395
0.2695454
0.2689616
0.2696591
0.2704441
0.271331
6.611848
0.3649727
0.2695309
0.2689651
0.2696629
0.270449
0.2713372
6.604802
0.3650049
0.2695242
0.2689726
0.2696698
0.2704566
0.2713586
6.598133
0.3652192
0.2695376
0.2689822
0.2696804
0.2704792
0.2713834
6.591679
0.3656541
0.2695663
0.2689995
0.2697078
0.2705066
0.2714101
6.585492
0.366683
0.2696174
0.2690391
0.2697435
0.2705375
0.2714387
6.57947
0.368605
0.2696742
0.2690942
0.2697852
0.2705707
0.2714679
6.495683
0.3704642
0.2698226
0.2691647
0.2698333
0.2706049
0.2714965
0.2725509
0.273875
0.2756425
0.2773396
0.2803658
0.2852131
0.2953844
0.2725276
0.2738454
0.2756036
0.2772946
0.2803098
0.2851428
0.3081188
0.2725008
0.2738144
0.2755661
0.2778767
0.2802614
0.2850644
0.3078597
0.2724727
0.2737827
0.2755258
0.2772025
0.2801997
0.284986
0.3075407
0.2724448
0.2737506
0.2754872
0.277151
0.2801433
0.284908
0.3071393
0.2724174
0.2737184
0.2754474
0.2771033
0.280088
0.2848308
0.3066381
0.272391
0.2736869
0.2754081
0.2770575
0.2800725
0.2847549
0.3061106
0.2723675
0.273656
0.2753694
0.2770128
0.2800581
0.28468
0.3054669
0.2723605
0.2736278
0.2753326
0.2769674
0.280014
0.2846109
0.304818
0.2723553
0.27362
0.2752985
0.2769224
0.2799705
0.2845423
0.3040749
0.2723509
0.2736142
0.2752892
0.276879
0.2799274
0.2844741
0.3033032
0.2723469
0.2736086
0.2752821
0.2768693
0.2798841
0.2844058
0.3023989
0.2723432
0.2736033
0.2752748
0.2768607
0.2798765
0.284336
0.3015264
0.2723395
0.273598
0.2752675
0.2768517
0.279868
0.2843225
0.300765
0.2723359
0.2735924
0.2752599
0.2768425
0.279859
0.2843057
0.3002569
0.2723322
0.2735868
0.2752521
0.2768328
0.2798493
0.2842878
0.2993015
0.2723283
0.2735809
0.275244
0.2768224
0.2798348
0.2842692
0.298792
0.2723244
0.2735749
0.2752354
0.2768069
0.2797031
0.2842493
0.298245
0.2723202
0.2735689
0.2752266
0.2767955
0.2796848
0.284229
0.2977761
0.2723158
0.2735626
0.2752173
0.2767836
0.2796698
0.2842074
0.2972774
0.2723112
0.273556
0.2752077
0.2767712
0.2796542
0.2841848
0.2967874
0.2723062
0.2735489
0.2751973
0.276758
0.2796378
0.2841614
0.2964235
0.2723009
0.2735414
0.2751855
0.2767488
0.2796173
0.2841371
0.2961015
0.2722939
0.2735333
0.2751754
0.2773234
0.2794992
0.2841006
0.2958103
0.2722868
0.2735248
0.2751608
0.2767216
0.2794321
0.2840703
0.2955641
0.27228
0.273516
0.2751523
0.2766982
0.2794068
0.2840414
0.2953273
0.2722705
0.2735051
0.2751357
0.2766789
0.2793819
0.2840064
0.2951287
0.2722439
0.2734913
0.2751326
0.2766602
0.2793469
0.2837394
0.2949434
0.2722248
0.2731529
0.2746657
0.2766475
0.2793151
0.2836378
0.2947908
0.2722309
0.2731496
0.274649
0.2766193
0.2792851
0.2835951
0.2946694
0.2721808
0.2731216
0.2746335
0.2765972
0.2792538
0.2834125
0.2945598
0.272145
0.2730539
0.2746158
0.2765735
0.2792194
0.2832085
0.29445
0.2721375
0.2730525
0.2745832
0.2765493
0.2791846
0.2831644
0.2943304
0.2721237
0.2730287
0.2745389
0.2765279
0.2791558
0.2830905
0.293058
0.2721088
0.2730337
0.2745319
0.2765229
0.2791789
0.2830782
0.2930335
0.2721208
0.2730485
0.2744563
0.2766203
0.2793129
0.2830502
0.2896211
0.272183
0.273107
0.2746121
0.2767465
0.279447
0.2829966
0.2905216
0.2722801
0.2732482
0.2748105
0.2768468
0.2795948
0.2833556
0.2908211
0.2724175
0.2734449
0.2750146
0.2770009
0.2800599
0.28418
0.2903628
0.2724888
0.2736829
0.2753661
0.2777092
0.2806404
0.2847253
0.2907371
0.2726771
0.2739563
0.2759164
0.2783625
0.2810177
0.2847088
0.2919505
0.2726746
0.2740412
0.2762049
0.2785812
0.2811963
0.2843155
0.2914428
0.2726919
0.2742181
0.2761699
0.2784496
0.281111
0.2842857
0.2914667
0.2726904
0.2741425
0.2762181
0.2782898
0.2807921
0.2844023
0.2912756
0.2723939
0.2740489
0.2757858
0.2782862
0.2805234
0.2842451
0.2913413
0.2719597
0.2736073
0.2756932
0.2776467
0.2804685
0.2832114
0.2907437
0.2714503
0.2732084
0.2751115
0.2775194
0.2793707
0.2828898
0.2883695
0.2710504
0.2726269
0.274962
0.2768607
0.2792951
0.281673
0.2873376
0.2703623
0.2722098
0.2743842
0.2766127
0.27866
0.2815892
0.2854861
0.2699385
0.2714427
0.2740242
0.2762753
0.2783362
0.2810803
0.2849529
0.2694962
0.2709536
0.2733263
0.2756446
0.2780974
0.2805321
0.2840428
0.2690482
0.27039
0.2727682
0.2749988
0.2772388
0.2797728
0.2834076
0.2687792
0.269957
0.2724487
0.2744935
0.2765578
0.2791345
0.2822048
0.2686673
0.2701555
0.2722829
0.2740958
0.2756725
0.2775715
0.2809718
0.2684561
0.2699993
0.2721494
0.2737718
0.275135
0.276084
0.2786433
0.2682388
0.2699224
0.2720114
0.2734252
0.2744732
0.2755585
0.2680244
0.2697502
0.2714903
0.2729732
0.2741052
0.2751228
0.2680837
0.2697389
0.2715186
0.2730278
0.2742401
0.275514
0.2680471
0.2695617
0.271473
0.2729559
0.2745413
0.2759983
0.2786141
0.2680599
0.2692913
0.2713437
0.2732743
0.2749422
0.2773193
0.2810966
0.2682479
0.2693907
0.2714764
0.2734114
0.2754498
0.2778329
0.2809723
0.2684344
0.2696402
0.2716855
0.2734478
0.2756279
0.2779174
0.2811843
0.2686282
0.2696428
0.2720991
0.2738994
0.2756182
0.2781781
0.2819047
0.2690792
0.270197
0.2722911
0.2739755
0.2759962
0.2783125
0.2820395
0.2696328
0.270555
0.2725773
0.2744585
0.2761358
0.2782425
0.2837116
0.2700456
0.2710691
0.2730427
0.2746221
0.276584
0.2787021
0.2843963
0.2705831
0.271596
0.2733845
0.2752635
0.2768765
0.2797208
0.2857895
0.271116
0.2721189
0.2739154
0.2755784
0.2777496
0.2803948
0.2867279
0.2714757
0.2725929
0.2743283
0.2761663
0.278139
0.2811774
0.2867186
0.2718915
0.2729235
0.2746491
0.2764586
0.278711
0.2815475
0.2877438
0.2721921
0.2732633
0.2748827
0.276915
0.2791821
0.281826
0.2879403
0.2725124
0.2736484
0.2751393
0.2773392
0.279523
0.282407
0.2891672
0.2725054
0.2737557
0.2751218
0.2771963
0.2796398
0.2831825
0.2895063
0.2723131
0.2735557
0.2749753
0.2769476
0.2798145
0.2833338
0.2887336
0.2721794
0.2733197
0.2746994
0.2766383
0.2796002
0.2833127
0.2892175
0.2721188
0.2731652
0.2745148
0.2767063
0.2792933
0.2829176
0.290432
0.272103
0.2730944
0.2744179
0.276505
0.2791733
0.2828897
0.290833
0.2721125
0.2730709
0.2744178
0.2764777
0.2791145
0.2829659
0.2929871
0.2721265
0.2730494
0.2745273
0.2765122
0.2791275
0.2830305
0.2932453
0.2721376
0.2730889
0.2745739
0.2765361
0.279162
0.2831228
0.2933899
0.2721453
0.2731043
0.2745981
0.2765603
0.2791989
0.2831682
0.2941703
0.2721794
0.2731074
0.2746241
0.2765844
0.2792343
0.2832438
0.2943006
0.2722275
0.2731659
0.2746406
0.2766073
0.279268
0.2835848
0.2944521
0.2722237
0.2732019
0.2746567
0.2766267
0.2792985
0.2836133
0.2946064
0.2722433
0.2734909
0.2751296
0.276662
0.2793281
0.2836568
0.2947739
0.2722698
0.2735041
0.2751344
0.2766828
0.2793653
0.2839
0.2949837
0.2722792
0.2735149
0.2751486
0.2766981
0.279393
0.2840238
0.2952123
0.272286
0.273524
0.2751616
0.276713
0.2794182
0.2840539
0.2954499
0.2722932
0.2735326
0.2751741
0.2767276
0.2794443
0.2840822
0.2957234
0.2723003
0.2735406
0.2751856
0.2767419
0.2795756
0.2841187
0.2960144
0.2723055
0.2735482
0.2751966
0.2767555
0.2796286
0.2841478
0.2963239
0.2723106
0.2735554
0.275207
0.2767684
0.2796455
0.2841717
0.2966893
0.2723153
0.2735621
0.2752168
0.2767809
0.2796617
0.2841947
0.2970836
0.2723199
0.2735685
0.2752261
0.2767927
0.2796768
0.2842166
0.2975358
0.2723241
0.2735745
0.2752349
0.276804
0.2796913
0.2842378
0.2980509
0.2723281
0.2735805
0.2752435
0.2768179
0.2797603
0.284258
0.298583
0.2723319
0.2735864
0.2752516
0.2768303
0.2798437
0.2842774
0.2991391
0.2723355
0.273592
0.2752594
0.2768402
0.2798535
0.2842958
0.2997837
0.272339
0.2735973
0.2752668
0.2768499
0.2798629
0.2843133
0.3004298
0.2723425
0.2736025
0.275274
0.2768591
0.2798717
0.2843291
0.3009906
0.2723459
0.2736075
0.2752809
0.2768681
0.2798801
0.2843709
0.3017945
0.2723494
0.2736127
0.2752878
0.2768769
0.2799052
0.2844392
0.3026114
0.2723532
0.273618
0.2752967
0.2769034
0.2799479
0.2845076
0.3034479
0.2723576
0.2736252
0.2753303
0.2769482
0.2799911
0.2845761
0.3042233
0.2723636
0.2736525
0.2753665
0.2769934
0.2800346
0.2846449
0.3048973
0.2723858
0.2736825
0.2754046
0.2770393
0.2800766
0.2847167
0.3055451
0.2724108
0.2737132
0.2754434
0.2770831
0.280061
0.2847923
0.30615
0.272437
0.2737448
0.2754827
0.2771299
0.2801144
0.2848688
0.306664
0.2724644
0.2737771
0.2755225
0.2771768
0.2801699
0.2849465
0.3070899
0.272493
0.2738097
0.2755625
0.2772238
0.2802257
0.2850246
0.3074385
0.2725216
0.2738419
0.2756022
0.2772703
0.2802817
0.2851032
0.3077011
0.2725496
0.2738743
0.2756418
0.2773164
0.2803377
0.285182
0.3044111
3.386156
3.657509
3.660889
3.66193
3.661969
3.661969
3.661969
3.661969
3.661969
3.661969
3.661969
3.661969
3.661969
3.661969
3.661969
3.661969
3.661969
3.661969
3.307655
3.683364
3.662577
3.661975
3.661968
3.661968
3.661968
3.661968
3.661968
3.661968
3.661968
3.661968
3.661968
3.661968
3.661968
3.661968
3.661968
3.661968
3.299687
3.687501
3.662298
3.661971
3.661967
3.661967
3.661967
3.661967
3.661967
3.661967
3.661967
3.661967
3.661967
3.661967
3.661967
3.661967
3.661967
3.661967
3.275918
3.679435
3.662024
3.661968
3.661968
3.661968
3.661968
3.661968
3.661968
3.661968
3.661968
3.661968
3.661968
3.661968
3.661968
3.661968
3.661968
3.661968
3.24746
3.678743
3.661984
3.661968
3.661968
3.661968
3.661968
3.661968
3.661968
3.661968
3.661968
3.661968
3.661968
3.661968
3.661968
3.661968
3.661968
3.661968
3.214728
3.679497
3.661983
3.661968
3.661968
3.661968
3.661968
3.661968
3.661968
3.661968
3.661968
3.661968
3.661968
3.661968
3.661968
3.661968
3.661968
3.661968
3.180183
3.6799
3.661983
3.661968
3.661969
3.661968
3.661968
3.661968
3.661968
3.661968
3.661968
3.661968
3.661968
3.661968
3.661968
3.661968
3.661968
3.661968
3.140852
3.679674
3.661983
3.661968
3.661969
3.661968
3.661968
3.661968
3.661968
3.661968
3.661968
3.661968
3.661968
3.661968
3.661968
3.661968
3.661968
3.661968
3.104357
3.680392
3.661983
3.661968
3.661969
3.661968
3.661968
3.661968
3.661968
3.661968
3.661968
3.661968
3.661968
3.661968
3.661968
3.661968
3.661968
3.661968
3.064321
3.681304
3.661983
3.661968
3.661969
3.661968
3.661968
3.661968
3.661968
3.661968
3.661968
3.661968
3.661968
3.661968
3.661968
3.661968
3.661968
3.661968
3.021535
3.68171
3.661984
3.661968
3.661969
3.661968
3.661968
3.661968
3.661968
3.661968
3.661968
3.661968
3.661968
3.661968
3.661968
3.661968
3.661968
3.661968
2.980937
3.681439
3.661989
3.661968
3.661969
3.661968
3.661968
3.661968
3.661968
3.661968
3.661968
3.661968
3.661968
3.661968
3.661968
3.661968
3.661968
3.661968
2.941675
3.682983
3.662034
3.66197
3.661969
3.661968
3.661968
3.661968
3.661968
3.661968
3.661968
3.661968
3.661968
3.661968
3.661968
3.661968
3.661968
3.661968
2.88058
3.68877
3.662289
3.661983
3.661969
3.661968
3.661968
3.661968
3.661968
3.661968
3.661968
3.661968
3.661968
3.661968
3.661968
3.661968
3.661968
3.661968
2.739467
3.691663
3.662609
3.662064
3.661972
3.661968
3.661968
3.661968
3.661968
3.661968
3.661968
3.661968
3.661968
3.661968
3.661968
3.661968
3.661968
3.661968
2.682408
3.686303
3.662008
3.66219
3.661994
3.661969
3.661968
3.661968
3.661968
3.661968
3.661968
3.661968
3.661968
3.661968
3.661969
3.661968
3.661968
3.661968
2.625965
3.69317
3.662083
3.661995
3.662031
3.661971
3.661968
3.661968
3.661968
3.661968
3.661968
3.661968
3.661968
3.661968
3.661969
3.661968
3.661968
3.661968
2.566665
3.69224
3.661819
3.661999
3.661982
3.661978
3.661968
3.661968
3.661968
3.661968
3.661968
3.661968
3.661968
3.661968
3.661969
3.661968
3.661968
3.661968
2.507589
3.693073
3.661816
3.661911
3.661974
3.661977
3.661969
3.661968
3.661968
3.661968
3.661968
3.661968
3.661968
3.661968
3.661968
3.661968
3.661968
3.661968
2.448917
3.694266
3.661945
3.661914
3.661961
3.661967
3.661971
3.661968
3.661968
3.661968
3.661968
3.661968
3.661968
3.661968
3.661968
3.661968
3.661968
3.661968
2.392225
3.695534
3.661981
3.661956
3.661958
3.66197
3.661968
3.661969
3.661968
3.661968
3.661968
3.661968
3.661968
3.661968
3.661968
3.661968
3.661968
3.661968
2.337639
3.69646
3.661983
3.661967
3.661969
3.661966
3.661969
3.661968
3.661969
3.661968
3.661968
3.661968
3.661968
3.661968
3.661968
3.661968
3.661968
3.661968
2.285081
3.697662
3.661983
3.661969
3.661976
3.661967
3.661968
3.661968
3.661968
3.661968
3.661968
3.661968
3.661968
3.661968
3.661968
3.661968
3.661968
3.661968
2.232165
3.698755
3.661983
3.661971
3.661982
3.661968
3.661968
3.661968
3.661969
3.661968
3.661968
3.661968
3.661968
3.66197
3.661971
3.661968
3.661968
3.661968
2.179563
3.69975
3.661983
3.661974
3.661991
3.661968
3.661969
3.661968
3.66197
3.661968
3.661968
3.661968
3.661968
3.661977
3.661986
3.661968
3.661968
3.661968
2.126764
3.700816
3.661984
3.661983
3.66201
3.661968
3.661969
3.661968
3.661971
3.661968
3.661968
3.661968
3.661968
3.661978
3.661994
3.661968
3.661968
3.661968
2.072655
3.701823
3.661986
3.662041
3.662081
3.661969
3.661971
3.66197
3.661974
3.661968
3.661968
3.661968
3.661968
3.661979
3.661987
3.661968
3.661968
3.661969
2.018444
3.702722
3.661994
3.662645
3.662689
3.661967
3.661976
3.661989
3.661981
3.661968
3.661968
3.661968
3.661968
3.661971
3.661968
3.661968
3.661968
3.661973
1.964588
3.703631
3.662052
3.667593
3.667755
3.661942
3.661988
3.662176
3.662035
3.661965
3.661968
3.661968
3.66197
3.661968
3.661966
3.661968
3.661968
3.661982
1.909273
3.705528
3.662243
3.682556
3.680025
3.661902
3.662018
3.663051
3.662409
3.661952
3.661968
3.661968
3.661969
3.66197
3.661969
3.661968
3.661969
3.661979
1.852773
3.711227
3.6633
3.671759
3.662696
3.662253
3.662055
3.663052
3.662884
3.661958
3.661968
3.661968
3.66198
3.66198
3.661967
3.661968
3.661974
3.661977
1.797527
3.728993
3.669238
3.679442
3.683712
3.663859
3.662117
3.66168
3.661515
3.661997
3.661969
3.661968
3.662012
3.662026
3.661968
3.661969
3.661992
3.661989
1.743143
3.745384
3.672394
3.709257
3.695116
3.674708
3.6623
3.662245
3.662259
3.662122
3.661972
3.661969
3.661978
3.661948
3.661968
3.661974
3.662003
3.662008
1.65237
3.72549
3.669514
3.688999
3.69091
3.684446
3.662769
3.662498
3.663036
3.662339
3.661983
3.66198
3.662003
3.661971
3.661968
3.661992
3.662019
3.661962
1.528849
3.787214
3.675191
3.662482
3.674542
3.65369
3.663329
3.662807
3.66321
3.662088
3.662082
3.66206
3.662042
3.661964
3.661973
3.662033
3.662105
3.661984
1.451759
3.847536
3.719957
3.713361
3.676162
3.670042
3.665055
3.664142
3.663491
3.663466
3.662972
3.66264
3.662369
3.662133
3.662026
3.662078
3.662227
3.661969
1.32175
3.946358
3.782511
3.736454
3.675244
3.674062
3.67235
3.67098
3.669771
3.668611
3.667069
3.665506
3.664226
3.662965
3.662474
3.662187
3.66209
3.661971
0.6017922
4.073171
3.746507
3.6974
3.674839
3.679633
3.677871
3.678047
3.676882
3.676119
3.67465
3.671865
3.669393
3.666677
3.664571
3.663038
3.662285
3.662016
0.8042093
3.7979
3.851588
3.714608
3.678162
3.686155
3.683183
3.684207
3.68271
3.681895
3.680477
3.677613
3.676146
3.673711
3.669489
3.666001
3.663681
3.662462
0.235511
3.368478
3.837651
3.674454
3.69
3.693519
3.687689
3.686876
3.687956
3.686703
3.685864
3.684832
3.681644
3.67885
3.676038
3.672081
3.667921
3.66453
0.4014237
3.871941
3.813284
3.696673
3.69463
3.700533
3.691104
3.690965
3.691701
3.690685
3.690973
3.690087
3.686512
3.682938
3.68052
3.676574
3.673382
3.669413
0.160518
3.711937
3.764029
3.697858
3.70292
3.694286
3.692592
3.69394
3.693776
3.69475
3.692941
3.690505
3.691125
3.690314
3.68404
3.681245
3.678028
3.67446
0.3370155
3.702981
3.739866
3.702465
3.710225
3.693172
3.691445
3.694196
3.696278
3.698491
3.698622
3.696024
3.693791
3.691753
3.687877
3.685078
3.682854
3.677099
0.3837048
3.65814
3.750236
3.744915
3.703353
3.696015
3.690249
3.694551
3.697493
3.70287
3.702483
3.701897
3.699091
3.69101
3.690251
3.689844
3.683488
3.682456
0.3783707
3.795062
3.814956
3.762349
3.728488
3.695208
3.692922
3.693576
3.696396
3.7026
3.706769
3.698804
3.700284
3.696141
3.693935
3.688586
3.689208
3.682902
0.3749142
3.736485
3.960558
3.708036
3.702525
3.697149
3.692354
3.693113
3.695134
3.702949
3.696429
3.708334
3.696424
3.698286
3.694678
3.694682
3.686946
3.686435
0.329254
3.647145
3.896274
3.732548
3.732833
3.727246
3.689362
3.695996
3.701465
3.707125
3.707533
3.703428
3.709156
3.697614
3.69901
3.688406
3.691078
3.686002
0.3408477
2.880716
3.970779
3.849388
3.758733
3.673861
3.687092
3.721558
3.720718
3.7193
3.707963
3.710224
3.706267
3.705316
3.697335
3.6902
3.687621
3.688035
0.2901926
1.462682
3.469723
3.912816
3.783083
3.671901
3.701839
3.783411
3.777604
3.771839
3.743539
3.728823
3.700787
3.706652
3.69633
3.689889
3.68892
3.684002
0.3119767
0.9507658
2.998797
3.786662
3.790589
3.755625
3.778226
3.7266
3.703959
3.698285
3.709627
3.685461
3.684557
3.684181
0.3081584
1.00574
3.771907
3.778766
3.718792
3.716363
3.700475
3.695529
3.681247
3.680072
0.2905508
3.76162
3.795887
3.698985
3.697531
3.682053
3.680595
3.68085
3.763246
3.691426
3.691883
3.675439
3.678374
3.678153
3.688269
3.689648
3.679699
3.674408
3.673939
3.739036
3.674575
3.670604
3.67328
3.671607
3.75992
3.696371
3.671332
3.66856
3.667667
3.758646
3.695428
3.673762
3.667048
3.665809
3.713508
3.659718
3.682657
3.665164
3.664439
3.69668
3.685109
3.666928
3.664278
3.661878
3.745056
3.684982
3.663289
3.662888
3.661014
3.659233
0.2949761
3.717363
3.686978
3.659961
3.661819
3.66092
3.660312
0.2932906
0.6980201
3.719792
3.669338
3.68235
3.668224
3.657764
3.6602
3.658647
0.3127909
0.7751664
2.490512
3.70438
3.669597
3.686594
3.651467
3.667661
3.660466
3.654959
3.654912
3.656126
0.3003932
0.9538293
3.635293
3.900561
3.813089
3.714308
3.649111
3.637802
3.676353
3.66831
3.665344
3.670991
3.667976
3.653532
3.655349
3.652826
3.653355
3.655011
0.3483179
2.758206
4.008436
3.797844
3.699827
3.665683
3.654969
3.636044
3.653653
3.635118
3.650287
3.644149
3.646464
3.65551
3.650227
3.652142
3.652589
3.654595
0.3481037
3.229082
3.908639
3.824919
3.726294
3.655488
3.641188
3.632113
3.631036
3.636309
3.647397
3.649315
3.64872
3.645487
3.651088
3.65397
3.652046
3.655547
0.2862067
3.422189
3.793577
3.744911
3.675521
3.656969
3.63639
3.632046
3.63277
3.642427
3.658551
3.646371
3.645238
3.644906
3.646283
3.649091
3.654323
3.654232
0.2765986
3.490187
3.765649
3.706647
3.661512
3.637225
3.635805
3.632217
3.636297
3.639688
3.646141
3.645942
3.6447
3.64549
3.647495
3.651471
3.652474
3.657656
0.2608339
3.509367
3.695946
3.660667
3.692563
3.642133
3.634877
3.633245
3.63511
3.636723
3.63786
3.647696
3.64918
3.649119
3.652356
3.651612
3.657708
3.658146
0.2562192
3.367902
3.767828
3.666815
3.6321
3.653536
3.642754
3.63597
3.638301
3.639122
3.641379
3.647636
3.651303
3.650949
3.652699
3.65652
3.658969
3.661784
0.1867524
3.125596
3.857486
3.679539
3.647268
3.656459
3.640497
3.639843
3.642557
3.643144
3.646733
3.648195
3.65239
3.655173
3.65547
3.660193
3.662372
3.663622
0.4338761
3.223503
3.832521
3.667229
3.652106
3.651385
3.647523
3.645091
3.647631
3.648105
3.65325
3.653877
3.656289
3.657618
3.661867
3.661829
3.663831
3.66321
0.2336152
3.781745
3.728905
3.694501
3.658672
3.652761
3.651881
3.650929
3.653136
3.653994
3.657648
3.658457
3.65977
3.661575
3.663854
3.663923
3.662312
3.661578
0.3321235
3.620304
3.769508
3.695306
3.663691
3.657569
3.657301
3.658119
3.659247
3.659605
3.660637
3.661765
3.66425
3.663586
3.6626
3.662167
3.661781
3.661989
0.8940053
3.677676
3.717441
3.70439
3.66899
3.662266
3.661977
3.663213
3.664609
3.663472
3.66344
3.663267
3.662659
3.661721
3.661532
3.662531
3.662003
3.661984
1.101227
3.705313
3.674441
3.660746
3.67524
3.670228
3.662292
3.666114
3.667274
3.663404
3.661726
3.661679
3.662307
3.662241
3.661874
3.662217
3.662154
3.661985
1.282707
3.756967
3.667303
3.682537
3.702106
3.699325
3.662101
3.66245
3.661921
3.663739
3.662223
3.661998
3.66202
3.662022
3.661959
3.661997
3.662051
3.661995
1.407147
3.839658
3.669039
3.710015
3.699484
3.674161
3.66217
3.661946
3.662714
3.661636
3.662004
3.661986
3.662021
3.662045
3.661967
3.661977
3.661878
3.662022
1.458812
3.729099
3.662306
3.664077
3.680499
3.656518
3.66218
3.662442
3.661317
3.662167
3.661982
3.661972
3.661938
3.66195
3.661968
3.661968
3.661998
3.662014
1.698858
3.721015
3.66094
3.690462
3.652478
3.66003
3.661995
3.663098
3.662314
3.66214
3.661971
3.661969
3.661936
3.66197
3.661968
3.661968
3.661989
3.661988
1.756717
3.71901
3.662807
3.683042
3.671683
3.663949
3.66201
3.662362
3.662037
3.661997
3.661969
3.661969
3.661963
3.661973
3.661971
3.661968
3.661972
3.661962
1.816533
3.71704
3.662322
3.660137
3.661462
3.661946
3.661979
3.661834
3.662045
3.661959
3.661968
3.661968
3.661968
3.661973
3.66197
3.661968
3.661969
3.661965
1.876053
3.713034
3.662174
3.664841
3.662371
3.662115
3.661972
3.661941
3.661929
3.661962
3.661968
3.661968
3.661968
3.661971
3.66197
3.661968
3.661968
3.66197
1.935019
3.711187
3.662134
3.660693
3.661008
3.661892
3.661969
3.661992
3.661965
3.661972
3.661968
3.661968
3.661968
3.661981
3.661982
3.661968
3.661968
3.66197
1.991886
3.709773
3.662111
3.661703
3.661898
3.661953
3.661969
3.661973
3.661971
3.661969
3.661968
3.661968
3.661968
3.661974
3.661976
3.661968
3.661968
3.661967
2.049437
3.708461
3.662091
3.661958
3.66198
3.661967
3.661968
3.661969
3.66197
3.661968
3.661968
3.661968
3.661968
3.66197
3.66198
3.661968
3.661968
3.661968
2.105659
3.707165
3.662074
3.66197
3.661971
3.661968
3.661968
3.661968
3.661969
3.661968
3.661968
3.661968
3.661968
3.661967
3.661973
3.661968
3.661968
3.661968
2.160333
3.706736
3.662069
3.661969
3.661969
3.661968
3.661968
3.661968
3.661969
3.661968
3.661968
3.661968
3.661968
3.661969
3.661967
3.661968
3.661968
3.661968
2.214946
3.705337
3.662055
3.661968
3.661969
3.661968
3.661968
3.661968
3.661969
3.661968
3.661968
3.661968
3.661968
3.661967
3.661969
3.661968
3.661968
3.661968
2.270061
3.705097
3.662055
3.661968
3.661969
3.661969
3.66197
3.661969
3.661968
3.661968
3.661968
3.661968
3.661968
3.661968
3.661968
3.661968
3.661968
3.661968
2.324145
3.70417
3.662049
3.661969
3.661973
3.661977
3.661974
3.661969
3.661968
3.661968
3.661968
3.661968
3.661968
3.661968
3.661968
3.661968
3.661968
3.661968
2.379208
3.703617
3.662047
3.661983
3.662
3.661994
3.661973
3.661968
3.661968
3.661968
3.661968
3.661968
3.661968
3.661968
3.661968
3.661969
3.661968
3.661968
2.434701
3.703003
3.662072
3.662056
3.662078
3.661989
3.66197
3.661968
3.661968
3.661968
3.661968
3.661968
3.661968
3.661968
3.66197
3.661969
3.661968
3.661968
2.492569
3.702597
3.662241
3.662208
3.66205
3.661968
3.661968
3.661968
3.661968
3.661968
3.661968
3.661968
3.661968
3.661968