/*--------------------------------*- C++ -*----------------------------------*\
| =========                 |                                                 |
| \\      /  F ield         | OpenFOAM: The Open Source CFD Toolbox           |
|  \\    /   O peration     | Version:  2206                                  |
|   \\  /    A nd           | Website:  www.openfoam.com                      |
|    \\/     M anipulation  |                                                 |
\*---------------------------------------------------------------------------*/
FoamFile
{
    version     2.0;
    format      ascii;
    arch        "LSB;label=32;scalar=64";
    class       volScalarField;
    location    "2.4";
    object      omega.b_0;
}
// * * * * * * * * * * * * * * * * * * * * * * * * * * * * * * * * * * * * * //

dimensions      [0 0 -1 0 0 0 0];

internalField   nonuniform List<scalar> 
13078
(
6.495683
0.3927758
0.2711707
0.2696285
0.2702231
0.2709852
0.2718741
6.57947
0.3769817
0.2703046
0.2695304
0.2701922
0.2709629
0.2718531
6.585492
0.3697329
0.2700988
0.2694578
0.2701474
0.270931
0.2718261
6.591679
0.3670277
0.2699937
0.2694026
0.2701047
0.2708978
0.2717971
6.598133
0.3661003
0.2699367
0.2693726
0.2700696
0.2708663
0.2717686
6.604802
0.3656595
0.2699077
0.2693539
0.2700529
0.2708398
0.2717415
6.611848
0.365492
0.2699064
0.2693411
0.2700415
0.270829
0.2717179
6.619131
0.3654728
0.2699166
0.2693346
0.2700349
0.2708217
0.2717099
6.626655
0.3654879
0.2699149
0.2693328
0.2700313
0.2708167
0.2717042
6.634488
0.3655701
0.2699166
0.2693324
0.2700292
0.2708133
0.2716999
6.642682
0.3656972
0.2699196
0.2693327
0.270028
0.2708109
0.2716964
6.651186
0.3658575
0.2699232
0.2693332
0.2700273
0.270809
0.2716935
6.660084
0.3660445
0.2699272
0.2693336
0.2700268
0.2708074
0.2716909
6.669375
0.3662551
0.2699314
0.2693338
0.270026
0.2708059
0.2716884
6.679072
0.3664861
0.2699368
0.2693304
0.2700199
0.2708039
0.271686
6.689206
0.3667367
0.2699426
0.269326
0.2700152
0.270802
0.2716835
6.69983
0.3670055
0.2699477
0.2693255
0.270014
0.2708003
0.2716809
6.710875
0.3672924
0.2699533
0.2693251
0.2700129
0.2707986
0.2716782
6.722538
0.3676001
0.2699591
0.2693247
0.2700115
0.2707961
0.2716754
6.734686
0.3679274
0.2699654
0.2693238
0.2700044
0.2707857
0.2716716
6.747501
0.3682782
0.2699722
0.2693228
0.2699957
0.2707773
0.2716677
6.760848
0.3686527
0.2699798
0.2693223
0.2699933
0.2707743
0.2716642
6.77492
0.3690546
0.2699879
0.2693217
0.2699915
0.2707712
0.2716595
6.789678
0.3694873
0.269997
0.2693211
0.2699887
0.2707599
0.2716436
6.805169
0.3699547
0.2700073
0.2693205
0.269986
0.2707454
0.2716304
6.821431
0.3704623
0.2700188
0.2693201
0.2699839
0.2707408
0.2716244
6.838694
0.3710076
0.270032
0.2693199
0.2699817
0.2707366
0.2716194
6.860782
0.3716503
0.2700485
0.2693199
0.2699793
0.2707308
0.271601
6.889513
0.3722576
0.2700646
0.2693203
0.2699771
0.2707253
0.2715752
6.964902
0.3736927
0.2701031
0.2693212
0.2699753
0.2707214
0.2715688
7.077898
0.3754061
0.2701116
0.2693213
0.2699734
0.2707169
0.2715582
7.116328
0.3780272
0.2701147
0.2693189
0.2699705
0.2707128
0.27155
7.153721
0.3813395
0.2702352
0.2693254
0.2699645
0.2707077
0.2715439
7.186841
0.3826858
0.2703041
0.2693316
0.2699556
0.2706954
0.2715325
7.221337
0.3840325
0.2703393
0.2693176
0.2699682
0.2706696
0.2715106
7.257502
0.3853715
0.2703735
0.2692613
0.269927
0.2706663
0.2714868
7.295301
0.3866111
0.2703893
0.2692309
0.2698421
0.2706537
0.2714865
7.335033
0.3877137
0.2703833
0.2691886
0.2698023
0.2706089
0.2715281
7.385167
0.3886575
0.2703706
0.2691412
0.26976
0.2705347
0.2715734
7.498023
0.3905163
0.2703667
0.2690733
0.2697249
0.2705246
0.2716055
7.673723
0.3953405
0.2702629
0.2689933
0.2696525
0.2704653
0.2715118
7.748893
0.399986
0.2702987
0.2688259
0.2694982
0.2703509
0.2715025
7.810545
0.4017545
0.2701984
0.2685986
0.2693077
0.2702551
0.2714725
7.87836
0.403135
0.2699703
0.2683657
0.2691629
0.2701702
0.2713778
7.986778
0.4047983
0.269778
0.2682118
0.2690058
0.2700539
0.2711894
8.166376
0.408307
0.2696027
0.2680651
0.2688342
0.2698053
0.270935
8.255057
0.411946
0.2696022
0.2679375
0.2685426
0.2694331
0.270485
8.326486
0.4126253
0.2693691
0.2677364
0.2682521
0.2690385
0.2699014
8.392868
0.4127322
0.2690584
0.2673932
0.2679104
0.2686825
0.2694642
8.454875
0.4124854
0.2687136
0.2670487
0.2675205
0.2681799
0.2690264
8.545473
0.4148181
0.2684772
0.2667434
0.26715
0.2677146
0.2684812
8.785742
0.4205155
0.2684316
0.2666492
0.2669928
0.2674736
0.2680809
8.871374
0.4214331
0.2681849
0.2662598
0.2666805
0.2672691
0.2679234
8.907378
0.4214431
0.2679281
0.2659908
0.2664292
0.2670692
0.2677547
8.925071
0.4216185
0.2677714
0.2658425
0.2663003
0.2669186
0.2675659
8.927058
0.4213221
0.2676084
0.2656649
0.266116
0.2667008
0.2673886
8.925747
0.4198974
0.2674272
0.2654852
0.265953
0.2665562
0.2671989
8.923368
0.4182809
0.2675105
0.2656463
0.2660687
0.2666337
0.2672486
8.905598
0.4165544
0.2676198
0.2657981
0.2661599
0.2666856
0.2672331
8.868398
0.4146251
0.2676797
0.2658928
0.2661844
0.2666557
0.267191
8.782129
0.4122806
0.2677727
0.2660882
0.2664038
0.2668692
0.2673922
8.542021
0.4061592
0.2679489
0.2664347
0.2666922
0.2671006
0.2676605
8.452848
0.4037412
0.2681733
0.2666204
0.26689
0.2673161
0.2679071
8.391612
0.4037641
0.2684662
0.2668838
0.2671219
0.2676474
0.2682433
8.326372
0.4041654
0.2687886
0.2672015
0.267524
0.2681781
0.2687559
8.255057
0.4051539
0.2691722
0.2675845
0.2679879
0.268555
0.2692674
8.166376
0.4035948
0.2694302
0.2678939
0.2683894
0.2690135
0.2698217
7.986778
0.4014117
0.2697429
0.2682347
0.2687543
0.2695138
0.2702478
7.87836
0.400612
0.2699694
0.2685182
0.2691707
0.2698481
0.2706833
7.810544
0.3997703
0.2701854
0.2687417
0.2694323
0.270165
0.2710574
7.749107
0.3982974
0.2703048
0.2689287
0.2695841
0.2704533
0.2713712
7.678125
0.3946428
0.2702987
0.2690518
0.2697163
0.2705338
0.2715168
7.535472
0.3909322
0.2703506
0.269142
0.2697824
0.270551
0.2716162
7.439013
0.3891053
0.2703652
0.2691939
0.2698002
0.2705576
0.2715885
7.38864
0.3879771
0.2703706
0.26923
0.2698316
0.2706363
0.2715248
7.344497
0.3861596
0.2703457
0.2692587
0.2698951
0.2706773
0.2714812
7.300796
0.3845075
0.2703248
0.2692793
0.2699542
0.270667
0.2714987
7.237692
0.383018
0.270296
0.2693198
0.2699682
0.2706828
0.271523
7.19073
0.3816787
0.2702625
0.2693279
0.2699586
0.2706996
0.2715366
7.154755
0.3805442
0.2702015
0.2693211
0.2699641
0.2707073
0.2715439
7.116393
0.3774125
0.2700903
0.2693169
0.269969
0.2707115
0.2715495
7.077898
0.3749485
0.2700944
0.2693189
0.2699717
0.2707156
0.2715576
6.964902
0.3733973
0.2700908
0.269319
0.2699736
0.2707203
0.2715678
6.889513
0.3720243
0.270056
0.2693183
0.2699757
0.2707243
0.2715746
6.860782
0.3714881
0.2700427
0.2693182
0.269978
0.2707298
0.2715996
6.838694
0.3708953
0.2700282
0.2693185
0.2699805
0.2707355
0.2716179
6.821431
0.3703871
0.2700164
0.269319
0.2699828
0.2707398
0.2716233
6.805169
0.3699057
0.2700059
0.2693196
0.2699851
0.2707447
0.2716294
6.789678
0.3694562
0.2699964
0.2693202
0.2699879
0.270759
0.2716428
6.774919
0.3690355
0.2699877
0.269321
0.2699908
0.2707703
0.271659
6.760848
0.3686413
0.2699798
0.2693217
0.2699927
0.2707736
0.2716636
6.747501
0.3682713
0.2699724
0.2693224
0.2699953
0.2707768
0.2716672
6.734686
0.3679229
0.2699657
0.2693235
0.2700042
0.2707854
0.2716712
6.722538
0.3675961
0.2699596
0.2693246
0.2700113
0.270796
0.2716752
6.710875
0.3672876
0.2699538
0.2693251
0.2700127
0.2707984
0.271678
6.69983
0.3669985
0.2699482
0.2693255
0.2700139
0.2708002
0.2716807
6.689206
0.3667263
0.2699431
0.2693262
0.2700152
0.2708019
0.2716833
6.679072
0.3664708
0.2699373
0.2693308
0.2700201
0.2708038
0.2716858
6.669375
0.3662331
0.2699318
0.2693343
0.2700263
0.2708059
0.2716882
6.660084
0.3660133
0.2699276
0.2693343
0.270027
0.2708073
0.2716905
6.651186
0.3658135
0.2699234
0.2693339
0.2700275
0.2708086
0.2716928
6.642682
0.3656352
0.2699195
0.2693335
0.270028
0.2708101
0.2716952
6.634488
0.3654826
0.269916
0.269333
0.2700287
0.2708119
0.271698
6.626655
0.3653628
0.2699133
0.2693327
0.2700297
0.2708142
0.2717013
6.619131
0.365291
0.2699129
0.2693331
0.2700316
0.2708176
0.2717057
6.611848
0.3652238
0.2698985
0.2693366
0.2700355
0.2708225
0.2717119
6.604802
0.3652555
0.2698917
0.2693441
0.2700423
0.2708302
0.2717333
6.598133
0.3654689
0.2699051
0.2693537
0.2700529
0.2708528
0.2717581
6.591679
0.3659023
0.2699337
0.269371
0.2700803
0.2708802
0.2717849
6.585492
0.3669281
0.2699847
0.2694106
0.270116
0.270911
0.2718135
6.57947
0.3688423
0.2700413
0.2694657
0.2701578
0.2709442
0.2718427
6.495683
0.3706858
0.2701892
0.2695362
0.2702058
0.2709785
0.2718714
0.2729271
0.274253
0.2760229
0.2777223
0.2807526
0.2856063
0.2958121
0.2729038
0.2742234
0.275984
0.2776773
0.2806965
0.2855359
0.3085184
0.272877
0.2741924
0.2759465
0.2782602
0.280648
0.2854573
0.3082588
0.2728489
0.2741606
0.2759061
0.277585
0.2805863
0.2853788
0.3079394
0.2728209
0.2741285
0.2758675
0.2775335
0.2805298
0.2853007
0.3075384
0.2727935
0.2740963
0.2758276
0.2774857
0.2804745
0.2852234
0.3070382
0.2727671
0.2740647
0.2757883
0.2774399
0.2804589
0.2851474
0.3065117
0.2727436
0.2740338
0.2757495
0.2773951
0.2804445
0.2850724
0.3058691
0.2727365
0.2740056
0.2757126
0.2773497
0.2804004
0.2850032
0.3052211
0.2727313
0.2739978
0.2756785
0.2773046
0.2803568
0.2849345
0.304479
0.2727269
0.273992
0.2756692
0.2772611
0.2803137
0.2848663
0.3037085
0.2727229
0.2739864
0.2756621
0.2772515
0.2802703
0.2847978
0.302805
0.2727192
0.273981
0.2756548
0.2772428
0.2802627
0.284728
0.3019333
0.2727156
0.2739757
0.2756475
0.2772338
0.2802541
0.2847144
0.3011727
0.272712
0.2739702
0.2756399
0.2772246
0.2802451
0.2846976
0.3006614
0.2727082
0.2739645
0.2756321
0.2772149
0.2802354
0.2846796
0.2997071
0.2727044
0.2739586
0.275624
0.2772045
0.2802209
0.284661
0.2991975
0.2727004
0.2739526
0.2756154
0.277189
0.280089
0.2846411
0.2986504
0.2726962
0.2739466
0.2756065
0.2771775
0.2800706
0.2846207
0.2981814
0.2726918
0.2739403
0.2755972
0.2771656
0.2800557
0.2845991
0.2976826
0.2726872
0.2739336
0.2755875
0.2771531
0.2800401
0.2845765
0.2971924
0.2726822
0.2739266
0.2755772
0.2771399
0.2800236
0.284553
0.2968285
0.2726769
0.273919
0.2755653
0.2771307
0.280003
0.2845287
0.2965066
0.2726698
0.2739109
0.2755552
0.2777061
0.2798848
0.2844922
0.2962154
0.2726627
0.2739024
0.2755406
0.2771034
0.2798175
0.2844617
0.2959693
0.2726559
0.2738936
0.2755321
0.27708
0.2797922
0.2844327
0.2957326
0.2726464
0.2738826
0.2755154
0.2770607
0.2797673
0.2843977
0.2955341
0.2726198
0.2738688
0.2755124
0.2770419
0.2797322
0.2841304
0.295349
0.2726006
0.27353
0.2750448
0.2770292
0.2797004
0.2840285
0.2951964
0.2726068
0.2735266
0.2750281
0.277001
0.2796702
0.2839857
0.2950752
0.2725566
0.2734987
0.2750125
0.2769789
0.2796389
0.2838029
0.2949657
0.2725207
0.2734308
0.2749948
0.2769551
0.2796044
0.2835986
0.2948561
0.2725131
0.2734295
0.2749621
0.2769308
0.2795696
0.2835543
0.294737
0.2724993
0.2734056
0.2749177
0.2769094
0.2795406
0.2834802
0.2934629
0.2724843
0.2734106
0.2749108
0.2769042
0.2795635
0.2834681
0.2934358
0.2724964
0.2734254
0.2748348
0.2770014
0.2796975
0.2834403
0.2900205
0.2725586
0.2734837
0.2749903
0.2771271
0.2798313
0.2833866
0.2909265
0.2726556
0.2736245
0.2751883
0.2772269
0.2799779
0.2837441
0.2912202
0.2727928
0.2738208
0.2753918
0.2773798
0.280441
0.2845668
0.2907572
0.272864
0.2740583
0.2757424
0.278087
0.2810205
0.2851115
0.2911352
0.273052
0.2743303
0.2762916
0.278739
0.2813973
0.2850919
0.2923496
0.2730474
0.2744128
0.2765784
0.2789553
0.2815737
0.2846977
0.2918402
0.2730616
0.2745889
0.2765402
0.2788204
0.2814859
0.284668
0.2918573
0.2730576
0.2745091
0.2765863
0.2786559
0.2811625
0.28478
0.2916655
0.2727564
0.2744133
0.276149
0.2786514
0.2808877
0.2846197
0.291736
0.2723181
0.2739674
0.2760569
0.2780046
0.2808334
0.2835803
0.2911373
0.271804
0.2735657
0.2754673
0.277878
0.2797277
0.2832594
0.2887541
0.2714006
0.2729788
0.2753182
0.2772134
0.2796535
0.2820361
0.2877294
0.2707066
0.27256
0.2747324
0.2769618
0.2790141
0.2819522
0.2858677
0.2702785
0.2717832
0.2743667
0.2766193
0.2786854
0.2814416
0.2853299
0.2698303
0.2712923
0.2736634
0.275983
0.2784464
0.2808915
0.2844146
0.2693769
0.2707212
0.2731014
0.2753369
0.2775846
0.2801282
0.2837769
0.2691049
0.2702831
0.2727791
0.2748285
0.2769028
0.2794916
0.2825711
0.2689892
0.2704807
0.2726084
0.2744296
0.2760129
0.2779242
0.281342
0.2687745
0.2703202
0.2724711
0.2741009
0.2754731
0.2764316
0.2789971
0.2685566
0.2702414
0.2723331
0.2737541
0.2748075
0.2759066
0.2683399
0.2700677
0.2718104
0.2732978
0.2744369
0.2754665
0.2683981
0.2700547
0.2718354
0.2733523
0.2745712
0.2758563
0.2683616
0.2698774
0.2717917
0.2732809
0.2748736
0.2763427
0.2789734
0.2683757
0.2696068
0.2716603
0.273598
0.2752741
0.2776629
0.2814636
0.2685633
0.2697051
0.2717942
0.2737327
0.2757819
0.278177
0.2813351
0.2687515
0.2699565
0.2720035
0.2737682
0.2759589
0.2782601
0.2815423
0.2689472
0.2699583
0.2724163
0.2742225
0.2759494
0.2785183
0.282256
0.269401
0.2705165
0.2726119
0.2743016
0.2763284
0.2786516
0.2823913
0.2699598
0.2708805
0.2729002
0.2747839
0.2764666
0.2785844
0.2840725
0.2703775
0.2713969
0.27337
0.274945
0.2769169
0.2790438
0.2847558
0.2709215
0.271931
0.273716
0.275594
0.2772084
0.2800649
0.2861481
0.2714619
0.2724597
0.2742527
0.2759127
0.2780913
0.2807371
0.2870884
0.2718266
0.2729409
0.2746727
0.2765068
0.278483
0.2815288
0.2870748
0.272249
0.2732775
0.2749988
0.2768063
0.2790591
0.2819027
0.2881044
0.272556
0.2736232
0.27524
0.2772701
0.2795398
0.2821877
0.2883042
0.2728833
0.2740147
0.2755045
0.277702
0.2798855
0.2827713
0.2895441
0.2728797
0.2741295
0.2754939
0.2775668
0.280011
0.2835558
0.2898902
0.2726881
0.2739314
0.2753527
0.2773256
0.2801923
0.2837136
0.2891184
0.2725546
0.2736961
0.2750775
0.2770186
0.2799843
0.2837017
0.289607
0.2724942
0.273542
0.2748931
0.2770875
0.2796779
0.2833077
0.2908316
0.2724784
0.2734713
0.2747964
0.2768862
0.279558
0.2832796
0.2912358
0.2724879
0.2734478
0.2747963
0.2768589
0.2794992
0.2833555
0.2933884
0.2725021
0.2734263
0.2749061
0.2768936
0.2795123
0.2834201
0.2936492
0.2725132
0.2734659
0.2749527
0.2769176
0.2795469
0.2835127
0.2937972
0.2725209
0.2734813
0.274977
0.2769418
0.2795838
0.2835581
0.294578
0.2725551
0.2734844
0.2750031
0.276966
0.2796193
0.2836339
0.2947075
0.2726033
0.273543
0.2750196
0.2769889
0.2796531
0.2839755
0.2948585
0.2725996
0.2735791
0.2750358
0.2770084
0.2796837
0.284004
0.2950123
0.2726191
0.2738684
0.2755094
0.2770438
0.2797134
0.2840476
0.2951793
0.2726457
0.2738817
0.2755141
0.2770646
0.2797506
0.2842911
0.2953886
0.2726551
0.2738925
0.2755284
0.2770799
0.2797784
0.2844151
0.2956167
0.2726619
0.2739016
0.2755414
0.2770949
0.2798036
0.2844454
0.295854
0.2726691
0.2739102
0.2755539
0.2771095
0.2798297
0.2844737
0.2961272
0.2726762
0.2739182
0.2755654
0.2771238
0.2799613
0.2845103
0.296418
0.2726815
0.2739258
0.2755765
0.2771375
0.2800143
0.2845394
0.2967273
0.2726866
0.273933
0.2755868
0.2771504
0.2800313
0.2845634
0.2970925
0.2726913
0.2739398
0.2755967
0.2771629
0.2800475
0.2845864
0.2974867
0.2726959
0.2739462
0.2756061
0.2771747
0.2800626
0.2846084
0.2979388
0.2727001
0.2739522
0.2756149
0.2771861
0.2800772
0.2846295
0.298454
0.2727041
0.2739582
0.2756235
0.2772
0.2801463
0.2846499
0.2989862
0.2727079
0.2739641
0.2756316
0.2772124
0.2802298
0.2846693
0.2995425
0.2727116
0.2739697
0.2756393
0.2772223
0.2802397
0.2846877
0.3001867
0.2727151
0.2739751
0.2756468
0.277232
0.280249
0.2847053
0.3008346
0.2727185
0.2739802
0.275654
0.2772412
0.2802578
0.2847211
0.3013963
0.2727219
0.2739853
0.2756609
0.2772502
0.2802662
0.2847629
0.3021997
0.2727255
0.2739905
0.2756678
0.277259
0.2802914
0.2848313
0.3030162
0.2727293
0.2739958
0.2756768
0.2772856
0.2803342
0.2848998
0.3038521
0.2727337
0.2740029
0.2757104
0.2773304
0.2803775
0.2849684
0.3046266
0.2727397
0.2740303
0.2757466
0.2773757
0.280421
0.2850372
0.3052998
0.2727619
0.2740603
0.2757847
0.2774217
0.280463
0.2851092
0.3059469
0.2727869
0.2740911
0.2758236
0.2774655
0.2804475
0.2851849
0.306551
0.2728131
0.2741227
0.275863
0.2775123
0.2805009
0.2852615
0.3070643
0.2728405
0.274155
0.2759028
0.2775593
0.2805564
0.2853392
0.30749
0.2728692
0.2741877
0.2759428
0.2776064
0.2806123
0.2854174
0.3078389
0.2728978
0.2742199
0.2759826
0.277653
0.2806684
0.2854962
0.3081025
0.2729258
0.2742523
0.2760223
0.2776991
0.2807244
0.2855751
0.3048275
3.388252
3.660041
3.664214
3.665236
3.665274
3.665275
3.665275
3.665275
3.665275
3.665275
3.665275
3.665275
3.665275
3.665275
3.665275
3.665275
3.665275
3.665275
3.311618
3.687222
3.665896
3.665281
3.665274
3.665274
3.665274
3.665274
3.665274
3.665274
3.665274
3.665274
3.665274
3.665274
3.665274
3.665274
3.665274
3.665274
3.303439
3.690533
3.665597
3.665277
3.665273
3.665273
3.665273
3.665273
3.665273
3.665273
3.665273
3.665273
3.665273
3.665273
3.665273
3.665273
3.665273
3.665273
3.279717
3.682511
3.665327
3.665274
3.665274
3.665273
3.665273
3.665273
3.665273
3.665273
3.665273
3.665273
3.665273
3.665273
3.665273
3.665273
3.665273
3.665273
3.251279
3.681874
3.66529
3.665274
3.665274
3.665273
3.665273
3.665273
3.665273
3.665273
3.665273
3.665273
3.665273
3.665273
3.665273
3.665273
3.665273
3.665273
3.21853
3.682641
3.665288
3.665274
3.665274
3.665273
3.665273
3.665273
3.665273
3.665273
3.665273
3.665273
3.665273
3.665273
3.665274
3.665273
3.665273
3.665273
3.183973
3.683054
3.665289
3.665274
3.665274
3.665274
3.665273
3.665273
3.665273
3.665273
3.665273
3.665273
3.665273
3.665273
3.665274
3.665274
3.665273
3.665273
3.144605
3.682823
3.665288
3.665274
3.665274
3.665274
3.665273
3.665273
3.665273
3.665273
3.665273
3.665273
3.665273
3.665273
3.665274
3.665274
3.665273
3.665273
3.108085
3.683512
3.665288
3.665274
3.665275
3.665274
3.665273
3.665273
3.665273
3.665273
3.665273
3.665273
3.665273
3.665273
3.665274
3.665274
3.665273
3.665273
3.068018
3.684413
3.665289
3.665274
3.665275
3.665274
3.665274
3.665273
3.665273
3.665273
3.665273
3.665273
3.665273
3.665273
3.665274
3.665274
3.665273
3.665273
3.025196
3.684818
3.66529
3.665274
3.665275
3.665274
3.665274
3.665273
3.665273
3.665273
3.665273
3.665273
3.665273
3.665273
3.665274
3.665274
3.665273
3.665273
2.984544
3.68457
3.665294
3.665274
3.665274
3.665274
3.665274
3.665274
3.665273
3.665273
3.665273
3.665273
3.665273
3.665273
3.665274
3.665274
3.665273
3.665273
2.945231
3.686038
3.665337
3.665275
3.665274
3.665274
3.665274
3.665274
3.665273
3.665273
3.665273
3.665273
3.665273
3.665273
3.665274
3.665274
3.665273
3.665273
2.88414
3.691772
3.665588
3.665288
3.665274
3.665274
3.665274
3.665274
3.665273
3.665273
3.665273
3.665273
3.665273
3.665273
3.665274
3.665274
3.665273
3.665273
2.742655
3.694699
3.665918
3.665368
3.665278
3.665274
3.665274
3.665274
3.665274
3.665273
3.665273
3.665273
3.665273
3.665273
3.665274
3.665274
3.665273
3.665273
2.685577
3.689298
3.665323
3.665497
3.665299
3.665274
3.665274
3.665274
3.665274
3.665273
3.665273
3.665273
3.665273
3.665273
3.665274
3.665274
3.665273
3.665273
2.62907
3.696178
3.665386
3.665304
3.665337
3.665277
3.665274
3.665274
3.665274
3.665273
3.665273
3.665273
3.665273
3.665273
3.665274
3.665274
3.665273
3.665273
2.56969
3.695167
3.66512
3.665304
3.665288
3.665284
3.665274
3.665274
3.665274
3.665273
3.665273
3.665273
3.665273
3.665273
3.665274
3.665274
3.665273
3.665273
2.510539
3.696022
3.665123
3.665215
3.66528
3.665283
3.665275
3.665274
3.665274
3.665273
3.665273
3.665273
3.665273
3.665274
3.665274
3.665274
3.665273
3.665273
2.451792
3.697206
3.665252
3.66522
3.665267
3.665273
3.665277
3.665274
3.665274
3.665273
3.665273
3.665273
3.665273
3.665274
3.665273
3.665273
3.665273
3.665273
2.395024
3.698468
3.665287
3.665262
3.665264
3.665275
3.665274
3.665274
3.665274
3.665274
3.665273
3.665273
3.665273
3.665274
3.665274
3.665274
3.665273
3.665273
2.340371
3.699386
3.665289
3.665273
3.665275
3.665272
3.665275
3.665273
3.665274
3.665274
3.665273
3.665273
3.665273
3.665274
3.665274
3.665273
3.665273
3.665273
2.287751
3.700584
3.665289
3.665275
3.665282
3.665273
3.665274
3.665274
3.665274
3.665274
3.665274
3.665273
3.665273
3.665274
3.665274
3.665274
3.665273
3.665273
2.234774
3.701673
3.665288
3.665277
3.665288
3.665273
3.665274
3.665274
3.665275
3.665274
3.665274
3.665273
3.665273
3.665275
3.665277
3.665274
3.665273
3.665273
2.182114
3.702671
3.665288
3.66528
3.665297
3.665274
3.665274
3.665274
3.665275
3.665274
3.665273
3.665273
3.665273
3.665282
3.665291
3.665273
3.665273
3.665273
2.129258
3.703733
3.66529
3.665289
3.665314
3.665274
3.665275
3.665274
3.665277
3.665274
3.665274
3.665273
3.665274
3.665284
3.6653
3.665273
3.665273
3.665274
2.075089
3.70474
3.665292
3.665343
3.665383
3.665275
3.665277
3.665276
3.66528
3.665274
3.665273
3.665274
3.665274
3.665285
3.665293
3.665274
3.665273
3.665274
2.020818
3.705641
3.665299
3.66592
3.665963
3.665273
3.665281
3.665293
3.665286
3.665274
3.665274
3.665274
3.665274
3.665277
3.665274
3.665273
3.665274
3.665278
1.966904
3.706541
3.665355
3.670712
3.67087
3.665249
3.665293
3.665473
3.665338
3.665271
3.665274
3.665274
3.665275
3.665274
3.665272
3.665273
3.665274
3.665287
1.91153
3.708405
3.665541
3.685642
3.683248
3.665208
3.665322
3.666335
3.665702
3.665259
3.665273
3.665274
3.665275
3.665276
3.665275
3.665273
3.665275
3.665285
1.854969
3.713979
3.666544
3.675301
3.666155
3.665546
3.665359
3.666379
3.666197
3.665263
3.665274
3.665274
3.665286
3.665285
3.665273
3.665274
3.66528
3.665282
1.799655
3.731546
3.67233
3.682279
3.686573
3.667095
3.66542
3.664978
3.664822
3.665302
3.665274
3.665274
3.665317
3.66533
3.665273
3.665275
3.665297
3.665294
1.7452
3.748426
3.675659
3.712074
3.698465
3.67773
3.665598
3.665553
3.665563
3.665424
3.665277
3.665275
3.665283
3.665255
3.665273
3.66528
3.665309
3.665314
1.654575
3.728547
3.672775
3.693044
3.694065
3.688042
3.666058
3.665799
3.666317
3.665646
3.665289
3.665285
3.665308
3.665277
3.665274
3.665296
3.665323
3.665267
1.530671
3.788531
3.678118
3.665269
3.678369
3.657004
3.666621
3.666102
3.666536
3.665388
3.665382
3.665361
3.665345
3.665269
3.665278
3.665337
3.665408
3.665289
1.453604
3.849615
3.722099
3.716033
3.678958
3.673316
3.668291
3.667388
3.666743
3.666727
3.666244
3.665922
3.665661
3.665432
3.665329
3.665383
3.665534
3.665274
1.323665
3.947202
3.78529
3.739837
3.678593
3.677231
3.675557
3.67417
3.672964
3.671802
3.670272
3.668731
3.667474
3.666238
3.665761
3.665486
3.665391
3.665276
0.6033391
4.076365
3.749842
3.700963
3.678301
3.682916
3.681157
3.681312
3.680156
3.679374
3.677884
3.675089
3.672579
3.669887
3.667815
3.666315
3.665579
3.665319
0.8072952
3.804633
3.854463
3.718045
3.681419
3.689437
3.686516
3.687581
3.686053
3.685212
3.683788
3.680906
3.679426
3.676947
3.672704
3.669224
3.666943
3.66575
0.2372441
3.370469
3.84187
3.677957
3.693211
3.696812
3.691073
3.690248
3.691382
3.6901
3.689259
3.688247
3.684998
3.682209
3.679345
3.675333
3.67114
3.667778
0.4024401
3.875883
3.817001
3.700108
3.697931
3.703934
3.694541
3.694396
3.69521
3.694139
3.694442
3.693565
3.689946
3.686374
3.683935
3.679932
3.67668
3.672647
0.1605661
3.714369
3.76762
3.700828
3.706078
3.697886
3.696107
3.697424
3.697341
3.698235
3.696511
3.694011
3.694662
3.69381
3.687536
3.684698
3.681424
3.677796
0.3377237
3.706809
3.74321
3.7057
3.713595
3.696416
3.695006
3.697733
3.699868
3.702003
3.702109
3.699541
3.697423
3.69544
3.691466
3.688624
3.686351
3.680542
0.3848285
3.663211
3.753104
3.74747
3.706593
3.699476
3.693787
3.698096
3.701093
3.706444
3.706162
3.705538
3.702644
3.694584
3.693913
3.693473
3.687101
3.685992
0.3796759
3.800019
3.817359
3.76664
3.731983
3.698629
3.69643
3.697144
3.700068
3.706292
3.710486
3.702542
3.704132
3.699849
3.69767
3.692355
3.692881
3.686546
0.376206
3.742568
3.963626
3.710199
3.705928
3.700486
3.695861
3.69664
3.698714
3.706499
3.700027
3.711852
3.700055
3.702075
3.698516
3.69847
3.690722
3.690144
0.3300183
3.654662
3.899496
3.736139
3.736064
3.730856
3.69283
3.699354
3.704736
3.710714
3.710833
3.707397
3.712973
3.701434
3.702869
3.692327
3.694931
3.689759
0.3413856
2.888053
3.97564
3.851317
3.761574
3.677349
3.690434
3.724411
3.723951
3.722704
3.711712
3.713043
3.710114
3.709136
3.701086
3.694203
3.691521
3.691887
0.2905637
1.470207
3.477368
3.916314
3.786995
3.67505
3.704914
3.785908
3.781248
3.775023
3.746897
3.732358
3.704774
3.710347
3.700389
3.693736
3.693027
3.687934
0.3124858
0.9547155
3.001444
3.792106
3.793219
3.758869
3.7812
3.730569
3.707427
3.702563
3.713082
3.689135
3.688408
3.688213
0.3087685
1.015349
3.775407
3.781372
3.722211
3.719693
3.703613
3.69963
3.685102
3.683994
0.2909613
3.764076
3.798236
3.702264
3.70267
3.686017
3.68452
3.684845
3.767383
3.696037
3.695322
3.679445
3.682336
3.682173
3.69126
3.693382
3.683433
3.678395
3.677845
3.741368
3.678226
3.674363
3.677188
3.675628
3.76213
3.699397
3.675172
3.672455
3.671603
3.764051
3.699703
3.677253
3.670916
3.669728
3.716693
3.66317
3.686433
3.669046
3.668386
3.700331
3.688678
3.670871
3.668026
3.665735
3.74962
3.687609
3.666466
3.666702
3.664837
3.66304
0.2954317
3.720477
3.691267
3.664051
3.665538
3.664838
3.664131
0.2937065
0.7011419
3.722709
3.673473
3.685599
3.671761
3.661456
3.663823
3.662298
0.3132907
0.781944
2.499244
3.708962
3.673598
3.690326
3.655015
3.67107
3.66415
3.658612
3.658611
3.659884
0.3007956
0.9559215
3.640539
3.903653
3.815605
3.716619
3.65222
3.641593
3.678133
3.671541
3.668703
3.673674
3.67128
3.657096
3.658676
3.656517
3.656939
3.658744
0.3488733
2.760567
4.011485
3.800395
3.702094
3.669139
3.657774
3.639409
3.656666
3.638395
3.653638
3.647601
3.649487
3.659075
3.653912
3.655667
3.656347
3.658136
0.3486655
3.232628
3.911039
3.82689
3.728914
3.658812
3.644359
3.635431
3.634303
3.639552
3.650908
3.652549
3.652514
3.64903
3.654572
3.657534
3.655488
3.65923
0.28664
3.426377
3.797542
3.747399
3.677708
3.659956
3.639426
3.635248
3.636078
3.645723
3.661826
3.649723
3.648663
3.648315
3.649917
3.652519
3.657942
3.657653
0.2772094
3.495291
3.768274
3.710955
3.664949
3.640024
3.63889
3.635371
3.639477
3.64301
3.649579
3.649135
3.648078
3.648982
3.650852
3.655005
3.655898
3.661229
0.2612783
3.514081
3.697107
3.662768
3.695447
3.644984
3.637942
3.636369
3.638307
3.639979
3.641197
3.650926
3.652556
3.652464
3.655808
3.655059
3.661156
3.661523
0.2565931
3.373873
3.770801
3.668986
3.635196
3.656444
3.645621
3.639069
3.641491
3.642338
3.644667
3.650869
3.654536
3.654264
3.656028
3.659824
3.662346
3.665137
0.1869865
3.131525
3.860051
3.682412
3.650076
3.659736
3.643675
3.642943
3.645733
3.646331
3.649947
3.651521
3.655665
3.658482
3.658825
3.663565
3.66569
3.666997
0.4348454
3.222819
3.837535
3.670235
3.654978
3.654298
3.650558
3.648181
3.650802
3.651276
3.656471
3.657094
3.659517
3.660906
3.665126
3.665152
3.667157
3.66657
0.2347948
3.787081
3.730993
3.697466
3.661708
3.655847
3.654983
3.65404
3.656314
3.657161
3.660896
3.661663
3.663035
3.66486
3.667173
3.667272
3.665663
3.664884
0.3339652
3.623822
3.771904
3.697451
3.666674
3.66069
3.660444
3.66125
3.662438
3.662799
3.663857
3.665043
3.667534
3.666924
3.665957
3.665491
3.665079
3.665297
0.8975203
3.68298
3.72263
3.708093
3.672109
3.665422
3.665193
3.666432
3.667824
3.666734
3.666747
3.666595
3.666001
3.665044
3.664836
3.66583
3.665308
3.665289
1.102419
3.70892
3.677293
3.663803
3.6782
3.673222
3.665622
3.669383
3.670587
3.666693
3.665048
3.664982
3.665607
3.665542
3.665183
3.665517
3.665458
3.66529
1.284246
3.759066
3.670548
3.685352
3.705128
3.702046
3.665365
3.665787
3.665241
3.66706
3.665527
3.665304
3.665322
3.665327
3.665265
3.665301
3.665358
3.6653
1.408729
3.842354
3.672185
3.713468
3.702718
3.678214
3.665499
3.665256
3.665996
3.664931
3.665308
3.665291
3.665326
3.665349
3.665273
3.665282
3.665184
3.665327
1.460759
3.734158
3.665741
3.667409
3.684134
3.659531
3.665476
3.665744
3.664615
3.665475
3.665288
3.665278
3.665244
3.665257
3.665274
3.665274
3.665306
3.665319
1.700764
3.723398
3.664263
3.693654
3.655476
3.663448
3.665301
3.666387
3.665624
3.66544
3.665276
3.665275
3.665242
3.665276
3.665274
3.665273
3.665294
3.665293
1.758741
3.722114
3.666114
3.686338
3.675181
3.667245
3.665315
3.665688
3.665352
3.665306
3.665275
3.665274
3.665269
3.665279
3.665276
3.665273
3.665278
3.665267
1.818635
3.719995
3.66562
3.663636
3.66486
3.665261
3.665285
3.665132
3.665349
3.665264
3.665274
3.665274
3.665274
3.665279
3.665276
3.665273
3.665274
3.665271
1.878232
3.715993
3.665476
3.668057
3.665617
3.665414
3.665278
3.66525
3.665234
3.665268
3.665274
3.665274
3.665274
3.665277
3.665276
3.665273
3.665274
3.665276
1.937271
3.714154
3.665438
3.663992
3.664325
3.665198
3.665275
3.665297
3.665271
3.665278
3.665274
3.665274
3.665273
3.665287
3.665287
3.665274
3.665273
3.665275
1.994207
3.712738
3.665415
3.665019
3.66521
3.665259
3.665274
3.665278
3.665277
3.665275
3.665274
3.665274
3.665273
3.66528
3.665282
3.665274
3.665273
3.665273
2.051827
3.711425
3.665396
3.665265
3.665286
3.665273
3.665274
3.665274
3.665276
3.665274
3.665274
3.665274
3.665274
3.665276
3.665285
3.665274
3.665273
3.665273
2.108116
3.710117
3.665379
3.665275
3.665277
3.665274
3.665274
3.665274
3.665275
3.665274
3.665274
3.665274
3.665273
3.665272
3.665279
3.665274
3.665273
3.665273
2.162853
3.70968
3.665374
3.665274
3.665275
3.665274
3.665274
3.665274
3.665275
3.665274
3.665274
3.665273
3.665273
3.665274
3.665273
3.665274
3.665273
3.665273
2.217528
3.708286
3.665361
3.665274
3.665274
3.665274
3.665274
3.665274
3.665274
3.665273
3.665273
3.665273
3.665273
3.665273
3.665275
3.665274
3.665273
3.665273
2.272707
3.708037
3.66536
3.665274
3.665274
3.665275
3.665275
3.665274
3.665273
3.665274
3.665273
3.665273
3.665273
3.665273
3.665273
3.665274
3.665273
3.665273
2.326851
3.707106
3.665354
3.665275
3.665279
3.665283
3.665279
3.665275
3.665274
3.665273
3.665273
3.665273
3.665273
3.665273
3.665274
3.665274
3.665273
3.665273
2.381978
3.706556
3.665352
3.665288
3.665305
3.665299
3.665279
3.665273
3.665274
3.665273
3.665273
3.665273
3.665273
3.665273
3.665274
3.665274
3.665273
3.665273
2.437533
3.705938
3.665376
3.66536
3.665382
3.665296
3.665275
3.665274
3.665273
3.665273
3.665273
3.665273
3.665273
3.665273
3.665275
3.665275
3.665273
3.665273
2.49547
3.705521
3.665542
3.665511
3.665359
3.665273
3.665273