/*--------------------------------*- C++ -*----------------------------------*\
| =========                 |                                                 |
| \\      /  F ield         | OpenFOAM: The Open Source CFD Toolbox           |
|  \\    /   O peration     | Version:  2206                                  |
|   \\  /    A nd           | Website:  www.openfoam.com                      |
|    \\/     M anipulation  |                                                 |
\*---------------------------------------------------------------------------*/
FoamFile
{
    version     2.0;
    format      ascii;
    arch        "LSB;label=32;scalar=64";
    class       volScalarField;
    location    "2.4";
    object      p_rbgh;
}
// * * * * * * * * * * * * * * * * * * * * * * * * * * * * * * * * * * * * * //

dimensions      [1 -1 -2 0 0 0 0];

internalField   nonuniform List<scalar> 
13078
(
13.30058
6.814904
2.519554
0.2245794
-0.9842135
-1.656077
-1.937052
10.86059
5.703731
2.030805
0.008029757
-1.162854
-1.813647
-2.075858
4.840045
2.778747
0.8474154
-0.6170315
-1.584234
-2.131118
-2.330606
1.537596
0.599261
-0.5061982
-1.477269
-2.190986
-2.593204
-2.698743
-0.6949311
-1.204859
-1.875848
-2.494199
-2.945178
-3.184031
-3.176709
-2.587476
-2.868332
-3.255682
-3.61291
-3.843919
-3.900956
-3.763497
-4.356895
-4.492792
-4.678382
-4.829368
-4.867738
-4.75371
-4.465541
-6.107436
-6.141678
-6.177262
-6.150871
-6.012967
-5.736445
-5.293137
-7.901175
-7.857374
-7.767724
-7.587791
-7.286105
-6.848152
-6.247919
-9.783143
-9.674591
-9.476019
-9.156046
-8.696905
-8.096138
-7.330997
-11.79084
-11.6239
-11.32584
-10.87273
-10.25786
-9.49029
-8.550736
-13.95809
-13.73554
-13.34178
-12.75729
-11.98448
-11.0433
-9.917856
-16.31832
-16.04003
-15.55033
-14.83204
-13.89546
-12.77086
-11.44568
-18.90575
-18.56947
-17.98042
-17.12267
-16.01411
-14.69187
-13.15033
-21.75664
-21.35842
-20.6643
-19.66692
-18.38571
-16.83
-15.05105
-24.91008
-24.44471
-23.63845
-22.50536
-21.0144
-19.20938
-17.17042
-28.40878
-27.86947
-26.93942
-25.63723
-23.9254
-21.85907
-19.53449
-32.29992
-31.67859
-30.6121
-29.1222
-27.16759
-24.81384
-22.17313
-36.63585
-35.92304
-34.70535
-33.00775
-30.7854
-28.1157
-25.12051
-41.4748
-40.65962
-39.27378
-37.34659
-34.85243
-31.8601
-28.41929
-46.88158
-45.95167
-44.3788
-42.19949
-39.43945
-36.03184
-32.10896
-52.92842
-51.86961
-50.08773
-47.62378
-44.51178
-40.66394
-36.23838
-59.69573
-58.49212
-56.47686
-53.69561
-50.1872
-45.85298
-40.8739
-67.27302
-65.90684
-63.63128
-60.49686
-56.54958
-51.73146
-46.19098
-75.7597
-74.21123
-71.64591
-68.11991
-63.69249
-58.41128
-52.12889
-85.2658
-83.51319
-80.62562
-76.66496
-71.69663
-65.78107
-58.7201
-95.91287
-93.93234
-90.68729
-86.246
-80.67973
-74.05355
-66.13861
-107.8353
-105.603
-101.9603
-96.98935
-90.76522
-83.36237
-74.63346
-121.1819
-118.6704
-114.5871
-109.0347
-102.0905
-93.85129
-84.38752
-136.1282
-133.3419
-128.7317
-122.5358
-114.8009
-105.6202
-95.0754
-152.8775
-149.7351
-144.569
-137.6669
-129.0702
-118.8624
-107.1276
-171.5393
-168.0785
-162.426
-154.6494
-145.0932
-133.7782
-120.7845
-192.3693
-188.6597
-182.4591
-173.9193
-163.1054
-150.5777
-136.1907
-215.5818
-211.482
-204.911
-195.404
-183.3521
-169.5131
-153.6256
-241.4165
-236.877
-229.6968
-219.4905
-206.5504
-190.9526
-173.3942
-270.1208
-265.1263
-257.3363
-246.7465
-232.7893
-215.8227
-195.8972
-301.9354
-296.4832
-288.0773
-276.7552
-262.3933
-243.6771
-221.5326
-337.0818
-331.1945
-322.2175
-310.1485
-294.8713
-275.2162
-251.7601
-375.7404
-369.4867
-360.0056
-347.3079
-331.2628
-311.5018
-285.7972
-418.1017
-411.6599
-401.654
-388.4551
-371.7835
-351.2097
-324.6711
-464.1576
-457.6919
-447.6253
-433.8061
-416.7512
-395.7635
-369.9238
-513.3752
-507.3181
-497.5749
-484.001
-466.2853
-445.0987
-418.926
-565.4547
-559.5523
-550.9579
-538.2351
-521.1849
-499.1072
-472.0071
-619.8009
-614.1355
-606.2545
-595.6312
-579.8551
-557.9104
-527.4785
-675.7441
-670.5472
-663.3313
-654.0935
-640.4508
-618.1774
-585.6894
-732.2633
-727.8582
-722.3057
-713.9799
-699.5896
-677.6352
-642.3548
-788.0191
-784.7783
-780.8828
-772.9345
-757.8099
-732.764
-696.1176
-842.1636
-839.7105
-836.3428
-828.8029
-812.7049
-785.944
-744.3651
-893.6194
-891.7606
-888.2348
-879.6652
-862.6238
-833.5307
-786.3404
-941.1911
-939.4943
-935.2905
-925.087
-905.3709
-872.2453
-821.0178
-983.9604
-982.4273
-976.8836
-964.1429
-941.1481
-903.3169
-846.026
-1020.58
-1018.782
-1012.04
-997.5114
-971.0896
-928.2842
-864.3948
-1049.552
-1046.933
-1039.337
-1022.515
-992.0771
-943.5881
-872.0785
-1070.34
-1066.844
-1057.545
-1037.798
-1002.937
-948.6015
-871.0408
-1082.868
-1078.654
-1067.811
-1045.474
-1006.837
-947.7381
-864.6799
-1087.327
-1082.62
-1070.745
-1046.679
-1005.639
-943.5268
-856.9619
-1083.541
-1078.613
-1066.222
-1041.376
-999.4059
-936.2808
-848.7203
-1071.545
-1066.634
-1054.257
-1029.602
-988.1844
-926.0874
-840.0343
-1052.009
-1047.452
-1035.726
-1012.246
-972.7233
-913.3551
-830.4297
-1025.159
-1021.211
-1010.507
-988.6325
-951.609
-895.633
-815.5339
-991.1357
-987.7433
-977.2076
-956.4568
-921.5387
-868.7028
-793.9039
-950.4255
-946.9862
-937.2068
-917.5925
-885.3595
-836.1353
-766.3832
-904.5686
-900.8484
-892.4451
-875.6315
-846.7947
-802.0947
-737.5391
-854.9239
-851.158
-843.6902
-828.902
-803.2039
-763.0313
-702.3741
-802.2005
-798.0285
-791.0607
-777.7553
-753.5148
-716.5521
-662.8932
-747.4923
-742.7164
-735.5513
-722.3548
-700.0972
-666.1814
-619.0329
-691.7961
-686.0621
-677.5962
-664.7587
-644.3063
-614.9507
-571.5129
-636.0259
-629.7373
-620.0347
-606.9672
-588.3402
-560.3998
-521.2044
-581.5681
-575.0045
-565.0894
-551.3144
-531.8042
-505.3586
-468.9782
-529.3545
-522.7351
-512.5468
-497.6139
-477.6763
-452.0584
-419.4433
-479.8615
-473.2991
-462.5532
-447.4013
-427.5289
-402.9357
-372.6092
-433.4679
-426.8204
-416.1484
-401.2536
-382.167
-358.4984
-329.5753
-390.3153
-383.8865
-373.6009
-359.4189
-341.1973
-318.6779
-290.3811
-350.6909
-344.606
-335.0264
-321.6105
-304.4166
-283.5306
-256.8306
-314.5409
-308.8951
-299.8724
-287.4365
-271.4888
-251.2788
-227.3443
-281.6595
-276.4261
-268.0679
-256.5775
-241.6556
-222.9206
-200.9553
-251.8711
-247.0893
-239.4133
-228.9081
-214.8601
-197.805
-178.4286
-224.9475
-220.6379
-213.6555
-203.6847
-190.9761
-175.6412
-158.4836
-200.7152
-196.8303
-190.5185
-181.3284
-169.6276
-156.1666
-140.7686
-178.9447
-175.4445
-169.536
-161.3441
-150.9313
-138.8513
-125.0133
-159.4084
-156.155
-150.8003
-143.3907
-134.2502
-123.4158
-110.9939
-141.9097
-138.965
-134.0943
-127.5531
-119.3784
-109.6589
-98.49387
-126.2113
-123.6076
-119.2776
-113.4322
-106.1117
-97.40868
-87.41168
-112.2112
-109.8698
-106.0469
-100.8276
-94.27989
-86.49586
-77.54753
-99.71915
-97.6422
-94.24032
-89.58102
-83.72905
-76.75311
-68.51719
-88.56986
-86.73006
-83.70553
-79.55168
-74.32945
-68.09698
-60.63907
-78.623
-76.99702
-74.30962
-70.61119
-65.95715
-60.40034
-53.75269
-69.75178
-68.31666
-65.93168
-62.64285
-58.49995
-53.54342
-47.63191
-61.84153
-60.57637
-58.4623
-55.54088
-51.84987
-47.33101
-42.11916
-54.78845
-53.67455
-51.80311
-49.21194
-45.93258
-41.8689
-37.18621
-48.49885
-47.51943
-45.865
-43.56973
-40.66118
-37.05377
-32.89158
-42.88841
-42.02851
-40.56804
-38.53761
-35.95755
-32.76224
-29.07191
-37.88144
-37.12778
-35.84055
-34.04423
-31.71191
-28.90436
-25.66575
-33.41006
-32.75105
-31.61927
-30.03571
-27.95604
-25.44943
-22.62771
-29.41341
-28.83882
-27.84654
-26.45505
-24.62381
-22.41139
-19.92091
-25.83694
-25.33785
-24.4711
-23.25271
-21.64619
-19.70084
-17.50525
-22.63171
-22.20045
-21.44714
-20.38409
-18.98135
-17.27817
-15.34845
-19.75377
-19.38379
-18.73266
-17.79353
-16.58335
-15.1105
-13.42218
-17.16354
-16.84963
-16.29348
-15.48092
-14.42827
-13.17021
-11.70164
-14.82509
-14.56305
-14.09566
-13.4085
-12.51171
-11.43434
-10.16523
-12.70549
-12.49242
-12.10934
-11.54091
-10.79111
-9.880235
-8.794456
-10.77421
-10.60871
-10.30786
-9.854017
-9.244271
-8.489731
-7.573753
-9.002248
-8.884846
-8.667047
-8.3269
-7.85328
-7.247643
-6.490244
-7.361135
-7.294983
-7.164781
-6.941334
-6.603231
-6.141661
-5.533618
-5.821672
-5.813467
-5.780193
-5.681499
-5.482068
-5.162214
-4.695977
-4.351091
-4.413775
-4.491003
-4.532278
-4.480385
-4.302294
-3.976034
-2.909469
-3.066414
-3.286086
-3.484842
-3.591443
-3.562181
-3.371232
-1.440773
-1.733061
-2.14115
-2.532255
-2.816934
-2.945046
-2.873582
0.149555
-0.3571887
-1.030492
-1.67104
-2.167251
-2.441247
-2.477358
2.056676
1.153608
0.06551276
-0.9212205
-1.634256
-2.049143
-2.182534
4.979568
3.006668
1.115011
-0.2893637
-1.23076
-1.777544
-1.991418
10.47175
5.505514
2.070242
0.1416834
-0.999197
-1.643435
-1.909057
-1.904052
-1.615005
-1.124519
-0.6337553
0.06574665
0.7991259
1.512257
-2.027094
-1.723802
-1.220389
-0.7070941
0.004381442
0.7458086
1.430906
-2.237863
-1.899108
-1.362173
-0.6772154
-0.08343767
0.6802483
1.385983
-2.538231
-2.145861
-1.565339
-0.9761726
-0.1972289
0.6063176
1.34778
-2.92894
-2.463667
-1.816824
-1.175116
-0.3374251
0.5227097
1.315766
-3.412682
-2.857613
-2.128781
-1.418248
-0.5062307
0.4266409
1.286809
-3.993195
-3.332386
-2.50493
-1.71089
-0.6950556
0.3149635
1.255503
-4.679199
-3.892847
-2.949631
-2.057126
-0.916942
0.1856181
1.221958
-5.478053
-4.547748
-3.467764
-2.462367
-1.184743
0.03671929
1.184707
-6.396787
-5.300241
-4.067186
-2.93052
-1.492991
-0.1333131
1.144098
-7.438093
-6.161684
-4.746291
-3.467916
-1.845055
-0.3262989
1.100635
-8.611178
-7.136037
-5.520219
-4.071971
-2.246841
-0.5450865
1.052816
-9.927379
-8.232875
-6.393784
-4.756712
-2.695018
-0.7950401
0.998265
-11.40044
-9.463683
-7.376337
-5.528827
-3.203995
-1.068329
0.9310676
-13.04671
-10.84205
-8.478636
-6.396427
-3.777559
-1.383001
0.8392176
-14.88548
-12.38396
-9.71343
-7.369594
-4.420885
-1.733416
0.7672448
-16.93915
-14.10812
-11.09559
-8.459567
-5.145344
-2.126064
0.6763403
-19.23351
-16.03618
-12.64299
-9.687796
-6.086952
-2.566231
0.5741691
-21.798
-18.19275
-14.37461
-11.05679
-7.013474
-3.058961
0.4579287
-24.66637
-20.6061
-16.3133
-12.58908
-8.047782
-3.609839
0.3293745
-27.87711
-23.30871
-18.48501
-14.30519
-9.205553
-4.225058
0.1889606
-31.47413
-26.33811
-20.9203
-16.22703
-10.50153
-4.912863
0.03353621
-35.50768
-29.73749
-23.66072
-18.36729
-11.95715
-5.68354
-0.1408114
-40.04251
-33.5522
-26.72093
-19.6477
-13.84009
-6.564168
-0.3373617
-45.13534
-37.84767
-30.21537
-23.54942
-15.81715
-7.541614
-0.5588516
-50.85356
-42.66067
-34.06972
-26.6264
-17.9622
-8.643305
-0.8098568
-57.31109
-48.07999
-38.43453
-30.08602
-20.37258
-9.893406
-1.095155
-64.84845
-54.18101
-43.36607
-33.99641
-23.11778
-11.73009
-1.420717
-73.36848
-62.31158
-50.57803
-38.42879
-26.2323
-13.53187
-1.791309
-82.69431
-70.27953
-57.12483
-43.51199
-29.77448
-15.44965
-2.21683
-93.6559
-79.8499
-64.59369
-49.29628
-33.81975
-18.01319
-2.735246
-106.2093
-90.52438
-73.10311
-55.91341
-38.47179
-21.25243
-3.314897
-120.0491
-103.4006
-82.90652
-63.51978
-43.83279
-24.33549
-3.973496
-135.7392
-117.1893
-94.93533
-72.30565
-50.05115
-28.00994
-5.771515
-153.6463
-132.9722
-108.8409
-82.49311
-57.27347
-32.26079
-6.886332
-174.116
-151.0258
-125.4405
-94.32763
-65.6164
-37.18929
-8.595909
-197.5246
-171.733
-143.2391
-109.8718
-75.18284
-42.92013
-11.65411
-224.3889
-195.4845
-163.5948
-126.7927
-87.10324
-49.6708
-13.82151
-255.324
-222.9005
-187.4484
-148.2065
-103.3859
-59.68734
-19.38314
-292.7385
-254.9251
-215.8998
-172.4185
-123.9832
-73.81758
-28.76386
-335.5867
-292.4861
-249.3293
-200.3588
-148.3761
-89.99948
-38.1005
-384.4335
-338.7123
-288.8008
-232.1684
-170.7995
-107.2459
-46.36499
-435.0159
-385.5169
-330.6022
-266.2067
-192.8658
-122.263
-52.56406
-486.2237
-431.5965
-369.4802
-297.7254
-217.2278
-135.5989
-59.36498
-539.8893
-484.0748
-414.4693
-328.3991
-240.1294
-146.7411
-65.48528
-592.7973
-531.4559
-451.7929
-358.9432
-256.3612
-164.7113
-76.48296
-640.5162
-573.7423
-483.658
-378.3695
-275.01
-181.878
-92.64111
-680.506
-610.0475
-509.6913
-396.413
-284.6379
-194.6242
-111.9956
-717.1359
-639.23
-530.5819
-407.1215
-286.813
-196.0326
-113.9129
-744.0782
-659.755
-538.6574
-407.7558
-283.1442
-190.7135
-107.5919
-764.3604
-678.7217
-543.1542
-400.4304
-274.1082
-180.6021
-98.22925
-773.527
-682.4378
-543.0568
-390.0232
-262.9384
-164.181
-81.71504
-776.247
-683.6741
-535.2717
-375.2265
-244.9691
-134.5341
-47.41358
-767.7008
-672.3424
-520.3855
-360.7105
-218.9309
-91.32571
16.84057
-754.9341
-656.6542
-505.56
-347.4987
-190.5609
-36.60239
69.08011
-744.1738
-644.0812
-493.2166
-331.6787
-160.9615
-7.994101
-735.0462
-634.1387
-482.6213
-318.1398
-143.6075
3.99744
-727.7915
-627.1392
-476.0484
-313.9523
-148.4043
2.087868
-722.4235
-623.3134
-475.2186
-320.0305
-177.7023
-50.79611
44.94305
-711.5847
-618.3922
-472.7032
-329.6829
-205.4932
-104.9758
-28.71835
-693.0429
-603.365
-466.1273
-328.3257
-218.3746
-135.4945
-73.47026
-673.1312
-588.6391
-454.9776
-320.2792
-220.7481
-148.3879
-84.85458
-646.7205
-565.992
-429.146
-305.3263
-218.2615
-150.4549
-75.91548
-618.6329
-540.6081
-417.0979
-294.3025
-215.0774
-151.8342
-78.00867
-585.5111
-519.0781
-399.2088
-279.7804
-207.5253
-153.8473
-90.22273
-550.9112
-488.7557
-381.6694
-265.7938
-198.3311
-150.9261
-88.01797
-511.4082
-460.2195
-361.4373
-256.9855
-184.2278
-135.6376
-70.31785
-466.7537
-422.7432
-337.3761
-244.4043
-171.7653
-116.2398
-57.17166
-420.9612
-383.2917
-308.973
-225.1009
-156.6912
-100.3681
-45.38577
-375.6895
-343.0793
-278.7727
-206.4803
-138.9563
-86.01097
-31.902
-333.2115
-305.7778
-250.2067
-185.3277
-122.6244
-71.92008
-23.89596
-292.721
-268.4798
-220.1327
-165.3376
-111.37
-63.51408
-21.59808
-257.0398
-235.012
-193.9906
-149.1988
-103.3648
-57.4974
-20.58813
-225.8734
-207.5362
-171.6248
-133.2995
-92.01372
-52.85893
-17.49725
-199.9294
-183.5403
-151.7745
-117.9364
-79.6194
-45.54578
-12.46803
-177.1629
-162.4613
-134.152
-102.0219
-69.44613
-38.82797
-8.38029
-157.1063
-143.8632
-118.4744
-89.23908
-60.6241
-33.25904
-6.338317
-139.329
-127.4027
-104.1628
-77.62595
-53.07255
-28.69601
-3.709347
-123.557
-112.8242
-91.12604
-68.34163
-46.50829
-24.86356
-2.929772
-109.5732
-99.85265
-79.47407
-60.23619
-40.78351
-21.49636
-1.723923
-97.11456
-87.80811
-70.22159
-53.1087
-35.78481
-18.6388
-0.6826116
-85.71374
-77.5173
-62.07274
-46.83421
-31.40447
-16.1317
-0.2614505
-75.6927
-68.03206
-54.8954
-41.30148
-27.55858
-13.19912
0.1362572
-67.13262
-60.24526
-48.5405
-36.41089
-24.17646
-11.40185
0.4376152
-59.27716
-49.20163
-38.97702
-32.07084
-21.1974
-9.835818
0.6901791
-52.30874
-43.58482
-34.45789
-28.28035
-18.55609
-8.130515
0.9017045
-46.33076
-38.58363
-30.44479
-24.92745
-16.24791
-6.841718
1.078284
-41.03358
-34.13607
-26.87998
-21.95462
-14.21139
-5.841722
1.225113
-36.31964
-30.18173
-23.71301
-19.31625
-12.40418
-4.95977
1.346225
-32.12395
-26.66523
-20.89949
-16.97452
-10.57699
-4.171874
1.445909
-28.39662
-23.53728
-18.39917
-14.89662
-9.135521
-3.482916
1.526984
-25.07796
-20.75392
-16.17643
-13.05162
-7.918523
-2.881831
1.586213
-22.12191
-18.27659
-14.20018
-11.41315
-6.839952
-2.351993
1.634579
-19.48794
-16.0711
-12.4429
-9.958086
-5.884428
-1.884474
1.674479
-17.14022
-14.10726
-10.88035
-8.66592
-5.03806
-1.472876
1.705797
-15.04701
-12.3585
-9.490954
-7.513388
-4.237462
-1.11223
1.725011
-13.1805
-10.80156
-8.256703
-6.495859
-3.518374
-0.7966045
1.735492
-11.51618
-9.415811
-7.160563
-5.595043
-2.948167
-0.5218805
1.737414
-10.03268
-8.183387
-6.188294
-4.797583
-2.445867
-0.2823843
1.738613
-8.711479
-7.088934
-5.327692
-4.093404
-2.005282
-0.07730667
1.73234
-7.536854
-6.119358
-4.568299
-3.473741
-1.62099
0.1005872
1.719978
-6.495557
-5.263644
-3.90122
-2.9309
-1.284934
0.2560209
1.702342
-5.576712
-4.512712
-3.321567
-2.455252
-0.9920196
0.3872383
1.681858
-4.771626
-3.862548
-2.814281
-2.041431
-0.74101
0.4968235
1.659075
-4.077549
-3.301735
-2.382343
-1.688392
-0.5287814
0.5865055
1.633796
-3.487168
-2.828993
-2.019347
-1.391984
-0.3531646
0.6578196
1.606143
-2.995447
-2.437328
-1.721365
-1.149442
-0.2264765
0.7123756
1.576772
-2.59549
-2.123088
-1.484871
-0.9556131
-0.1114935
0.7520629
1.546925
-2.284507
-1.882871
-1.306378
-0.8082186
-0.02528299
0.7791437
1.519801
-2.060376
-1.713562
-1.18258
-0.7041286
0.03409956
0.7953923
1.499438
-1.921927
-1.612546
-1.110571
-0.6404905
0.06907572
0.8014494
1.4726
-1.869121
-1.578007
-1.088286
-0.6152117
0.08211552
0.805853
1.456779
1.493444
1.487038
1.487889
1.490554
1.491617
1.48911
1.482285
1.473502
1.460448
1.444216
1.425683
1.4049
1.381935
1.356868
1.329751
1.300739
1.269942
1.23745
1.409727
1.444399
1.456678
1.46219
1.463921
1.461888
1.455579
1.446989
1.434284
1.418296
1.400038
1.37957
1.356965
1.332304
1.305522
1.276868
1.246588
1.214649
1.432861
1.42698
1.433748
1.438065
1.439279
1.437143
1.431308
1.422609
1.410159
1.394415
1.376376
1.356159
1.333842
1.309506
1.282976
1.254595
1.224737
1.19325
1.439116
1.414577
1.415197
1.417082
1.417262
1.414828
1.409207
1.400306
1.388045
1.372539
1.35466
1.334629
1.312529
1.28844
1.262082
1.23389
1.204356
1.173224
1.436668
1.401842
1.398747
1.398442
1.39759
1.394784
1.389186
1.380106
1.367959
1.352635
1.334858
1.314954
1.292998
1.269075
1.242952
1.214722
1.185412
1.154538
1.427336
1.388985
1.383812
1.381854
1.380146
1.376901
1.370302
1.362239
1.349935
1.334662
1.31695
1.29711
1.275223
1.251389
1.225657
1.197081
1.16788
1.137163
1.417577
1.376318
1.370162
1.367184
1.364874
1.361243
1.354321
1.346516
1.333853
1.318593
1.300909
1.281069
1.259193
1.235371
1.209649
1.180904
1.151731
1.121071
1.408977
1.363734
1.357839
1.354337
1.351692
1.347859
1.341015
1.332531
1.319575
1.304388
1.286709
1.266857
1.244914
1.220995
1.19519
1.166185
1.136941
1.106234
1.400339
1.354248
1.347198
1.343307
1.340509
1.336626
1.329802
1.31984
1.307216
1.292102
1.274223
1.254504
1.232347
1.20825
1.182267
1.152911
1.123488
1.092626
1.393062
1.346075
1.33818
1.334048
1.331247
1.327403
1.320462
1.310193
1.297005
1.281762
1.263945
1.243894
1.221507
1.197146
1.170881
1.141066
1.11135
1.080218
1.388525
1.339185
1.330769
1.326512
1.323871
1.320191
1.3131
1.301941
1.28922
1.273528
1.255601
1.235128
1.212414
1.187691
1.161035
1.130632
1.100505
1.068981
1.386877
1.333395
1.324598
1.320592
1.318392
1.315028
1.307979
1.296965
1.283096
1.267518
1.249178
1.228246
1.2051
1.179903
1.152727
1.121605
1.090932
1.058884
1.384472
1.326376
1.319304
1.316415
1.314955
1.311996
1.305004
1.293872
1.279687
1.263572
1.244729
1.223303
1.199606
1.173796
1.145967
1.113973
1.082612
1.049896
1.371456
1.319423
1.315926
1.314359
1.313731
1.311207
1.304229
1.292895
1.278385
1.261764
1.242397
1.220358
1.195971
1.169401
1.140767
1.10773
1.07552
1.041981
1.367116
1.318705
1.315559
1.314706
1.314863
1.312819
1.30585
1.294305
1.27942
1.262277
1.242274
1.219483
1.194246
1.166752
1.137138
1.102864
1.069631
1.035098
1.376685
1.321484
1.318057
1.3177
1.318599
1.317052
1.310115
1.298346
1.283021
1.265251
1.24446
1.220757
1.194491
1.165885
1.135095
1.099366
1.064913
1.029197
1.382262
1.324697
1.322493
1.323504
1.325199
1.324178
1.317275
1.305237
1.289384
1.270844
1.24908
1.224278
1.196776
1.166839
1.134651
1.097216
1.061327
1.024222
1.391916
1.330405
1.330367
1.332176
1.335025
1.334541
1.32762
1.315252
1.298716
1.279233
1.256284
1.230152
1.201174
1.169659
1.135818
1.096394
1.058828
1.020103
1.405215
1.340229
1.341965
1.344864
1.348341
1.348555
1.341526
1.328676
1.311254
1.290611
1.266235
1.238502
1.207765
1.174384
1.138606
1.096868
1.057352
1.016753
1.423514
1.354472
1.357992
1.362017
1.366425
1.366617
1.359324
1.345838
1.327274
1.305196
1.279106
1.249457
1.216635
1.181057
1.142994
1.098583
1.056827
1.014076
1.446205
1.373148
1.378873
1.384237
1.389636
1.389881
1.381497
1.367055
1.347079
1.323231
1.29509
1.263152
1.227866
1.189716
1.147256
1.10143
1.05716
1.011944
1.473881
1.396795
1.405017
1.411997
1.41841
1.418425
1.409083
1.392829
1.370982
1.344982
1.314389
1.279727
1.241537
1.20038
1.154061
1.105387
1.058219
1.010204
1.507332
1.425893
1.436994
1.445858
1.453283
1.452715
1.44231
1.424183
1.399447
1.370742
1.337214
1.299322
1.257721
1.213056
1.16289
1.110373
1.05985
1.008666
1.547427
1.461286
1.475537
1.48654
1.49494
1.493429
1.481658
1.461369
1.433489
1.400927
1.363789
1.32208
1.276476
1.22773
1.173141
1.116202
1.061855
1.007096
1.595438
1.504002
1.521605
1.534854
1.544182
1.541392
1.527862
1.504764
1.473289
1.436558
1.394446
1.348134
1.297852
1.244351
1.184585
1.122635
1.063987
1.005202
1.652171
1.554927
1.576377
1.591724
1.601885
1.597558
1.581716
1.555019
1.519208
1.477673
1.430099
1.377719
1.32185
1.262745
1.195335
1.129527
1.065944
1.00265
1.718918
1.61527
1.641107
1.658371
1.66913
1.663035
1.644075
1.612978
1.571785
1.524462
1.470663
1.411533
1.348594
1.282892
1.205618
1.136373
1.067326
0.998994
1.797238
1.686435
1.717226
1.736365
1.747257
1.73901
1.716002
1.679454
1.631651
1.577349
1.516144
1.449357
1.37847
1.304787
1.218826
1.142867
1.06767
0.9937699
1.888822
1.76991
1.806275
1.82762
1.837892
1.826849
1.798742
1.755353
1.699351
1.636712
1.56671
1.490921
1.411077
1.328335
1.232096
1.148488
1.066428
0.9863325
1.995714
1.867639
1.909914
1.933712
1.943513
1.928367
1.893707
1.841779
1.775876
1.703159
1.622654
1.536259
1.445991
1.347905
1.245162
1.152669
1.062854
0.9759599
2.120806
1.982211
2.031089
2.056398
2.066081
2.045511
2.00236
1.939993
1.861321
1.776743
1.683876
1.585064
1.482686
1.370312
1.25715
1.154887
1.056404
0.9619912
2.266879
2.117399
2.173522
2.20117
2.205831
2.180034
2.126354
2.050687
1.959131
1.858097
1.750468
1.63705
1.52063
1.393379
1.266989
1.153951
1.045948
0.9360287
2.427157
2.271026
2.340992
2.37007
2.369351
2.334945
2.267741
2.175446
2.066956
1.947333
1.822161
1.691649
1.558539
1.407241
1.273383
1.1483
1.029752
0.9058241
2.570464
2.472644
2.542259
2.569891
2.560428
2.513113
2.428725
2.315625
2.185834
2.044546
1.898567
1.747996
1.595889
1.420477
1.274583
1.136347
1.005826
0.8624526
2.941372
2.694881
2.774908
2.801474
2.783834
2.718499
2.612262
2.472976
2.317989
2.149825
1.978852
1.804854
1.630649
1.431712
1.268839
1.116158
0.9600229
0.8164592
3.215568
2.953052
3.046985
3.073444
3.04062
2.956565
2.820975
2.650129
2.46682
2.261953
2.061564
1.860363
1.644429
1.434272
1.25357
1.084832
0.9087233
0.7594133
3.61841
3.268986
3.367352
3.393655
3.342489
3.23114
3.057864
2.850766
2.624459
2.379662
2.144943
1.912255
1.663698
1.426862
1.225958
1.03978
0.8366133
0.6878252
4.381965
3.677898
3.760806
3.772868
3.694932
3.547125
3.325852
3.069101
2.793628
2.501275
2.226209
1.955953
1.64865
1.405023
1.18235
0.957028
0.7564892
0.5993111
5.579627
4.174198
4.23251
4.220566
4.10603
3.910428
3.628345
3.308541
2.973557
2.624493
2.302331
1.989589
1.636459
1.364142
1.117164
0.8479995
0.6561788
0.4907488
7.584392
4.763161
4.803124
4.752832
4.586656
4.328444
3.966291
3.568371
3.161574
2.745088
2.368493
1.980302
1.602769
1.299741
1.00825
0.7335672
0.5310566
0.3588237
5.358845
5.346455
5.46549
5.387421
5.148593
4.804313
4.340333
3.846321
3.353045
2.857097
2.418021
1.959811
1.541038
1.204369
0.8609465
0.5878531
0.3769267
0.199996
4.356974
6.185715
6.320345
6.142625
5.798376
5.33952
4.749623
4.138064
3.541324
2.952203
2.439424
1.866113
1.443017
1.043211
0.6718686
0.4078153
0.1901661
0.009912785
5.58372
7.375838
7.305479
7.013319
6.536129
5.905911
5.19108
4.436793
3.717035
3.019389
2.423927
1.766511
1.297745
0.8391105
0.4575445
0.1860838
-0.0356963
-0.2353467
7.392968
8.691341
8.440441
8.006672
7.369295
6.556617
5.65961
4.732655
3.867162
3.043751
2.280517
1.603974
1.086306
0.5388626
0.1908901
-0.08642086
-0.3323941
-0.5091089
8.934649
10.19488
9.76093
9.141181
8.30395
7.268253
6.147432
5.011994
3.946647
3.003061
2.091717
1.367074
0.7266812
0.2095355
-0.1427868
-0.451314
-0.6666885
-0.827512
10.21446
11.79132
11.28629
10.50003
9.356555
8.043736
6.644227
5.25609
3.951697
2.871824
1.760163
1.023565
0.2536685
-0.2016799
-0.586639
-0.8692105
-1.068344
-1.201059
7.426153
13.80635
13.10738
12.01756
10.54636
8.966573
7.134581
5.439401
3.87946
2.546332
1.353496
0.476194
-0.2670914
-0.7503358
-1.122258
-1.382728
-1.527391
-1.608516
-7.534495
16.87362
15.21772
13.90423
11.94794
9.896925
7.598106
5.472564
3.653796
1.968061
0.7239097
-0.2717147
-0.9748387
-1.455545
-1.781666
-1.951289
-2.053032
-2.068698
-16.34487
20.38986
17.99597
16.15144
13.79496
10.88305
7.987307
5.322063
3.016507
1.22465
-0.1646497
-1.229712
-1.899742
-2.313383
-2.547489
-2.617709
-2.608316
-2.561621
-17.97701
24.09367
21.43054
19.0618
2.081674
0.01746824
-1.456402
-2.443784
-3.039314
-3.319142
-3.406839
-3.346419
-3.235217
-3.069088
-21.80604
28.75268
-3.217336
-4.057586
-4.392153
-4.45583
-4.350269
-4.132033
-3.87116
-3.597272
-12.59892
-5.87101
-6.009597
-5.768035
-5.354662
-4.93997
-4.498323
-4.075146
-7.823528
-7.077986
-6.340475
-5.668945
-5.057389
-4.524986
-8.254196
-7.216823
-6.303584
-5.523422
-4.871823
-9.310065
-7.865296
-6.738094
-5.840841
-5.092463
-9.740806
-8.188885
-6.938399
-5.957041
-5.164278
-9.648231
-8.072793
-6.818876
-5.841386
-5.056721
-8.975394
-7.51255
-6.401609
-5.504398
-4.776732
-7.622838
-6.63481
-5.720807
-4.982559
-4.35939
-6.653379
-6.166157
-5.447472
-4.86611
-4.289721
-3.815258
-9.575431
-4.785232
-4.504466
-4.218379
-3.866832
-3.503844
-3.167038
-8.919621
44.90212
-2.064169
-2.617805
-2.893386
-2.934912
-2.841425
-2.702707
-2.509284
15.3912
33.68866
31.97148
3.366321
1.286404
-0.126708
-0.94651
-1.454368
-1.733008
-1.823185
-1.851306
-1.815789
8.73593
29.92752
26.98809
24.65195
21.35618
17.59702
13.87694
10.44014
7.360076
4.893054
2.884092
1.46982
0.4531995
-0.216855
-0.6654441
-0.909955
-1.061516
-1.143837
2.580189
25.94944
23.54078
21.57542
19.1784
16.31086
13.30299
10.45
8.025349
5.756813
4.042704
2.646993
1.591952
0.8317166
0.2787053
-0.07887269
-0.3548565
-0.5190151
9.651996
22.46569
20.73374
19.16164
17.11574
15.03299
12.60888
10.35742
8.266302
6.41362
4.807834
3.470515
2.480361
1.696352
1.078518
0.615616
0.2937259
0.05800567
14.55673
19.15811
18.26719
17.06045
15.5094
13.80559
11.87966
10.01958
8.258781
6.733515
5.242598
4.150561
3.076499
2.375124
1.743646
1.234619
0.8395543
0.5742607
15.3328
16.68183
16.11525
15.23517
14.07097
12.65929
11.14406
9.605287
8.124321
6.849728
5.503767
4.547258
3.583074
2.837423
2.242128
1.72715
1.352969
1.007268
13.23342
14.60259
14.31239
13.66117
12.7708
11.64874
10.41892
9.147075
7.953133
6.811345
5.735149
4.769734
3.951602
3.186356
2.635762
2.146138
1.716385
1.394608
12.00195
12.79095
12.73917
12.28708
11.60325
10.71483
9.718811
8.668516
7.664469
6.684874
5.785639
4.891509
4.195822
3.484384
2.91082
2.458361
2.049489
1.685493
11.02249
11.23744
11.35703
11.08088
10.56417
9.87492
9.054104
8.187189
7.342208
6.504425
5.765977
4.932531
4.303975
3.673378
3.113378
2.678491
2.299531
1.953297
11.92527
10.08135
10.20044
10.03716
9.644054
9.115565
8.431776
7.715824
7.004764
6.288702
5.646168
4.951179
4.347258
3.82549
3.258944
2.842451
2.477141
2.155073
12.58997
9.246451
9.27294
9.14157
8.832588
8.411576
7.855753
7.262795
6.664053
6.052044
5.494299
4.904356
4.342984
3.871809
3.392798
2.958582
2.610431
2.299705
10.08153
8.465488
8.463508
8.357793
8.116093
7.778674
7.326194
6.83366
6.328362
5.804938
5.319433
4.831664
4.303458
3.874843
3.474344
3.036703
2.706071
2.409476
8.811889
7.742883
7.750496
7.66966
7.481722
7.210459
6.840726
6.43094
6.003401
5.554883
5.132054
4.713578
4.235683
3.847785
3.483154
3.100154
2.770131
2.489311
7.259579
7.086647
7.121758
7.063783
6.918458
6.700483
6.397015
6.05504
5.692464
5.30744
4.938758
4.570671
4.165729
3.797569
3.466002
3.135631
2.808718
2.543532
6.725021
6.534256
6.571408
6.529901
6.41771
6.242396
5.992084
5.705373
5.396516
5.065664
4.743949
4.420241
4.072388
3.730207
3.428415
3.140487
2.825333
2.576084
6.257528
6.057062
6.086111
6.057391
5.972442
5.83088
5.622316
5.37548
5.115171
4.831861
4.550879
4.265137
3.966498
3.650706
3.375676
3.112725
2.842376
2.589985
5.646551
5.611398
5.659388
5.642661
5.578496
5.457958
5.284407
5.076244
4.84962
4.608015
4.361972
4.109506
3.853983
3.56158
3.311566
3.070869
2.829923
2.589324
5.370498
5.247866
5.27846
5.271637
5.219992
5.120728
4.975728
4.799361
4.604665
4.394882
4.178855
3.955358
3.727365
3.466191
3.239168
3.018916
2.807056
2.580253
5.022978
4.922313
4.948823
4.937856
4.89796
4.815758
4.693659
4.543306
4.375756
4.192864
4.002588
3.80429
3.601117
3.377481
3.160737
2.959351
2.764941
2.565182
4.716516
4.618734
4.651276
4.641202
4.608903
4.539249
4.435651
4.306618
4.159602
4.001696
3.833733
3.657438
3.475732
3.27825
3.078452
2.894228
2.715313
2.539378
4.446203
4.350195
4.381671
4.373983
4.350462
4.28798
4.199366
4.088101
3.959057
3.821443
3.672711
3.515562
3.35256
3.175008
2.993882
2.825383
2.660682
2.501252
4.202478
4.109758
4.137973
4.13209
4.112719
4.059012
3.982543
3.88599
3.773227
3.651732
3.519614
3.379146
3.232582
3.079041
2.908568
2.755305
2.604225
2.455307
3.980909
3.892336
3.917024
3.912235
3.896106
3.849734
3.783231
3.698885
3.599876
3.492167
3.374382
3.248457
3.116359
2.979551
2.824456
2.684674
2.545325
2.40712
3.778936
3.694571
3.715957
3.711803
3.698232
3.65784
3.599639
3.525487
3.438116
3.342234
3.236841
3.123601
3.004354
2.881571
2.74179
2.613451
2.484778
2.356502
3.594135
3.513962
3.532278
3.528536
3.516906
3.481442
3.430166
3.364641
3.287076
3.201386
3.106732
3.0047
2.898152
2.787377
2.660512
2.5423
2.423324
2.304173
3.424334
3.348386
3.363919
3.36045
3.350236
3.318882
3.273379
3.215234
3.145973
3.06907
2.983744
2.892999
2.797345
2.696497
2.585929
2.471655
2.361568
2.250791
3.268382
3.196048
3.20907
3.205823
3.196596
3.168755
3.12814
3.076219
3.014097
2.94474
2.869295
2.788126
2.700795
2.608486
2.507306
2.402045
2.299996
2.196882
3.124007
3.055822
3.066273
3.063184
3.054663
3.029823
2.99332
2.94669
2.890731
2.829619
2.762409
2.688328
2.608451
2.523715
2.430787
2.333768
2.239015
2.142898
2.991844
2.92575
2.934241
2.93129
2.923259
2.90095
2.868001
2.825786
2.776887
2.72264
2.661261
2.593519
2.520241
2.442249
2.356698
2.267072
2.178942
2.08921
2.867657
2.807219
2.812084
2.809054
2.801328
2.781217
2.751156
2.714533
2.671424
2.621822
2.565632
2.503486
2.436059
2.364083
2.285171
2.202146
2.12003
2.036128