/*--------------------------------*- C++ -*----------------------------------*\
| =========                 |                                                 |
| \\      /  F ield         | OpenFOAM: The Open Source CFD Toolbox           |
|  \\    /   O peration     | Version:  2206                                  |
|   \\  /    A nd           | Website:  www.openfoam.com                      |
|    \\/     M anipulation  |                                                 |
\*---------------------------------------------------------------------------*/
FoamFile
{
    version     2.0;
    format      ascii;
    arch        "LSB;label=32;scalar=64";
    class       surfaceScalarField;
    location    "2.4";
    object      phi.b;
}
// * * * * * * * * * * * * * * * * * * * * * * * * * * * * * * * * * * * * * //

dimensions      [0 3 -1 0 0 0 0];

oriented        oriented;

internalField   nonuniform List<scalar> 
26037
(
2.065905e-10
1.013698e-10
9.368023e-11
1.314808e-11
3.291659e-11
-2.848875e-12
8.069288e-12
-1.125977e-11
-4.742195e-12
-1.162673e-11
-1.486554e-11
-1.215988e-11
-1.301328e-11
-2.338459e-11
1.441926e-10
1.898649e-10
7.929584e-11
6.626312e-11
3.322759e-11
1.729747e-11
1.001107e-11
1.202579e-12
-4.146255e-12
-4.167067e-12
-1.481591e-11
-7.156445e-12
-9.238889e-12
-2.353089e-11
6.1648e-11
1.04096e-10
4.574642e-11
5.452e-11
2.464693e-11
2.656433e-11
8.249352e-12
1.077965e-11
-4.617746e-12
2.898784e-12
-1.505847e-11
-1.786756e-12
-5.037134e-12
-2.382092e-11
2.952515e-11
7.35526e-11
2.757036e-11
4.99776e-11
1.74179e-11
3.183111e-11
5.335681e-12
1.823299e-11
-5.85981e-12
9.64885e-12
-1.575881e-11
3.876905e-12
-3.872143e-13
-2.442003e-11
1.679614e-11
6.343506e-11
1.736709e-11
4.957518e-11
1.090562e-11
3.644129e-11
1.674848e-12
2.465744e-11
-7.745199e-12
1.591115e-11
-1.704582e-11
9.847458e-12
4.700994e-12
-2.553828e-11
9.782788e-12
5.974763e-11
1.008849e-11
5.086183e-11
5.244699e-12
4.106743e-11
-2.408213e-12
3.088881e-11
-1.106354e-11
2.237538e-11
-1.904026e-11
1.52492e-11
1.01648e-11
-2.73193e-11
5.087852e-12
5.953953e-11
4.339877e-12
5.341234e-11
5.135425e-13
4.539604e-11
-6.772169e-12
3.753753e-11
-1.470826e-11
2.887813e-11
-2.294253e-11
2.146234e-11
1.473235e-11
-2.986502e-11
1.674063e-12
6.165583e-11
-4.854722e-13
5.711362e-11
-4.964046e-12
5.057483e-11
-1.15037e-11
4.381238e-11
-1.900261e-11
3.538577e-11
-2.691037e-11
2.77913e-11
2.053968e-11
-3.473958e-11
-9.752537e-13
6.557696e-11
-4.635717e-12
6.193007e-11
-9.767057e-12
5.633493e-11
-1.64153e-11
5.03273e-11
-2.384671e-11
4.205639e-11
-3.164854e-11
3.428338e-11
2.65456e-11
-3.939682e-11
-3.178629e-12
7.105585e-11
-8.346062e-12
6.786443e-11
-1.439211e-11
6.283307e-11
-2.153089e-11
5.732097e-11
-2.919327e-11
4.904805e-11
-3.711075e-11
4.104069e-11
3.280355e-11
-4.493638e-11
-5.114383e-12
7.796332e-11
-1.182841e-11
7.498742e-11
-1.898013e-11
7.021974e-11
-2.687717e-11
6.498059e-11
-3.503196e-11
5.65324e-11
-4.328215e-11
4.819478e-11
3.940443e-11
-5.134842e-11
-6.950184e-12
8.629307e-11
-1.522908e-11
8.335198e-11
-2.36339e-11
7.863172e-11
-3.251085e-11
7.348584e-11
-4.138783e-11
6.468382e-11
-5.01778e-11
5.589419e-11
4.646201e-11
-5.865174e-11
-8.762237e-12
9.608205e-11
-1.866781e-11
9.305007e-11
-2.846295e-11
8.820773e-11
-3.850371e-11
8.299842e-11
-4.831808e-11
7.368347e-11
-5.783918e-11
6.429105e-11
5.410467e-11
-6.688715e-11
-1.062131e-11
1.074163e-10
-2.224484e-11
1.041949e-10
-3.356705e-11
9.908757e-11
-4.482717e-11
9.355436e-11
-5.589699e-11
8.381686e-11
-6.633086e-11
7.353845e-11
6.247279e-11
-7.612025e-11
-1.257964e-11
1.204187e-10
-2.604915e-11
1.169289e-10
-3.900285e-11
1.113814e-10
-5.042342e-11
1.041141e-10
-6.408214e-11
9.640438e-11
-7.573302e-11
8.392919e-11
7.17197e-11
-8.643421e-11
-1.467447e-11
1.352375e-10
-3.012952e-11
1.313981e-10
-4.49751e-11
1.25349e-10
-5.924599e-11
1.173668e-10
-7.333397e-11
1.092722e-10
-8.617451e-11
9.541992e-11
8.199127e-11
-9.794744e-11
-1.695386e-11
1.5206e-10
-3.458908e-11
1.477972e-10
-5.148824e-11
1.411476e-10
-6.772292e-11
1.323968e-10
-8.345512e-11
1.236301e-10
-9.776727e-11
1.082796e-10
9.345229e-11
-1.107878e-10
-1.945204e-11
1.71101e-10
-3.948459e-11
1.663385e-10
-5.86463e-11
1.589813e-10
-7.696969e-11
1.493234e-10
-9.463728e-11
1.397641e-10
-1.106588e-10
1.227376e-10
1.062732e-10
-1.251061e-10
-2.220439e-11
1.926041e-10
-4.488413e-11
1.872617e-10
-6.655504e-11
1.790865e-10
-8.720092e-11
1.68369e-10
-1.067793e-10
1.57629e-10
-1.249974e-10
1.392554e-10
1.206458e-10
-1.410727e-10
-2.524654e-11
2.16843e-10
-5.085742e-11
2.108363e-10
-7.532728e-11
2.017401e-10
-9.848397e-11
1.89713e-10
-1.179096e-10
1.751985e-10
-1.407267e-10
1.6021e-10
1.370062e-10
-1.588627e-10
-2.861153e-11
2.441186e-10
-5.745655e-11
2.373465e-10
-8.498896e-11
2.271889e-10
-1.111e-10
2.137828e-10
-1.353996e-10
1.975083e-10
-1.586373e-10
1.81418e-10
1.55236e-10
-1.787236e-10
-3.234218e-11
2.7477e-10
-6.477964e-11
2.671276e-10
-9.574375e-11
2.557822e-10
-1.25104e-10
2.408546e-10
-1.525464e-10
2.227635e-10
-1.783817e-10
2.050617e-10
1.757833e-10
-2.00873e-10
-3.647387e-11
3.091669e-10
-7.288956e-11
3.005392e-10
-1.076603e-10
2.878727e-10
-1.406136e-10
2.712561e-10
-1.713581e-10
2.511082e-10
-1.998475e-10
2.311787e-10
1.994282e-10
-2.255507e-10
-4.10418e-11
3.477097e-10
-8.185265e-11
3.379694e-10
-1.208376e-10
3.238444e-10
-1.578166e-10
3.054005e-10
-1.922112e-10
2.828778e-10
-2.203743e-10
2.568548e-10
2.295991e-10
-2.527627e-10
-4.60769e-11
3.908263e-10
-9.172463e-11
3.798288e-10
-1.353371e-10
3.640847e-10
-1.766767e-10
3.436004e-10
-2.152677e-10
3.185936e-10
-2.505401e-10
2.895503e-10
2.602041e-10
-2.835263e-10
-5.161381e-11
4.389773e-10
-1.025799e-10
4.265679e-10
-1.512985e-10
4.090471e-10
-1.975302e-10
3.863652e-10
-2.408224e-10
3.587392e-10
-2.807392e-10
3.266935e-10
2.946403e-10
-3.177044e-10
-5.765646e-11
4.926274e-10
-1.144688e-10
4.786863e-10
-1.68785e-10
4.59202e-10
-2.203899e-10
4.341575e-10
-2.688316e-10
4.037454e-10
-3.136024e-10
3.684645e-10
3.331204e-10
-3.547982e-10
-6.390595e-11
5.51947e-10
-1.274149e-10
5.370128e-10
-1.878403e-10
5.150499e-10
-2.453267e-10
4.874742e-10
-2.994761e-10
4.541515e-10
-3.496331e-10
4.153648e-10
3.719249e-10
-3.912789e-10
-7.087289e-11
6.176197e-10
-1.414684e-10
6.019187e-10
-2.085175e-10
5.771069e-10
-2.723626e-10
5.467944e-10
-3.325042e-10
5.102287e-10
-3.881117e-10
4.673987e-10
4.183262e-10
-4.375164e-10
-7.304619e-11
6.848517e-10
-1.55764e-10
6.784331e-10
-2.308341e-10
6.467999e-10
-3.017625e-10
6.128725e-10
-3.689128e-10
5.730088e-10
-4.318083e-10
5.263982e-10
4.728357e-10
-4.896658e-10
-8.595562e-11
7.644156e-10
-1.715351e-10
7.573376e-10
-2.547348e-10
7.242727e-10
-3.333887e-10
6.864144e-10
-4.082073e-10
6.43202e-10
-4.791462e-10
5.931395e-10
5.355656e-10
-5.456076e-10
-9.495162e-11
8.523974e-10
-1.762984e-10
8.317083e-10
-2.7702e-10
8.189815e-10
-3.668868e-10
7.710016e-10
-4.49961e-10
7.215017e-10
-5.291687e-10
6.679134e-10
6.060446e-10
-6.037872e-10
-1.04309e-10
9.492209e-10
-2.042178e-10
9.245242e-10
-2.868779e-10
8.956252e-10
-4.002604e-10
8.790877e-10
-4.941005e-10
8.106112e-10
-5.828872e-10
7.521559e-10
6.862549e-10
-6.676051e-10
-1.136567e-10
1.05499e-09
-2.234498e-10
1.027245e-09
-3.28505e-10
9.950206e-10
-4.351244e-10
9.806223e-10
-5.40017e-10
9.11009e-10
-6.396249e-10
8.472891e-10
7.779387e-10
-7.360994e-10
-1.230794e-10
1.169952e-09
-2.417825e-10
1.139105e-09
-3.560971e-10
1.1042e-09
-4.456799e-10
1.065829e-09
-5.809785e-10
1.042245e-09
-6.98068e-10
9.602123e-10
8.825988e-10
-8.075273e-10
-1.317274e-10
1.293537e-09
-2.58331e-10
1.259298e-09
-3.816133e-10
1.22297e-09
-5.011e-10
1.181783e-09
-5.994836e-10
1.137246e-09
-7.540772e-10
1.111017e-09
1.004183e-09
-8.807002e-10
-1.388919e-10
1.424443e-09
-2.723175e-10
1.386743e-09
-4.030678e-10
1.349642e-09
-5.33637e-10
1.309373e-09
-6.641002e-10
1.265233e-09
-8.066655e-10
1.249971e-09
1.144507e-09
-9.536854e-10
-1.431495e-10
1.559777e-09
-2.817674e-10
1.519384e-09
-4.193067e-10
1.482953e-09
-5.593487e-10
1.446452e-09
-7.028556e-10
1.406527e-09
-8.185263e-10
1.361832e-09
1.336521e-09
-1.020237e-09
-1.405744e-10
1.692354e-09
-2.843216e-10
1.656322e-09
-4.270052e-10
1.620466e-09
-5.738957e-10
1.589646e-09
-7.270118e-10
1.556516e-09
-8.85071e-10
1.515623e-09
1.511518e-09
-1.07211e-09
-1.195247e-10
1.803028e-09
-2.729881e-10
1.801221e-09
-4.230712e-10
1.763243e-09
-5.750662e-10
1.735698e-09
-7.363977e-10
1.712112e-09
-9.094174e-10
1.680894e-09
1.638962e-09
-1.052187e-09
-1.240373e-10
1.916204e-09
-2.249992e-10
1.890529e-09
-3.957783e-10
1.92296e-09
-5.560924e-10
1.885307e-09
-7.206267e-10
1.864491e-09
-9.019055e-10
1.845348e-09
1.803596e-09
-1.091435e-09
-1.100928e-10
2.012366e-09
-2.264047e-10
1.99092e-09
-3.107502e-10
1.990233e-09
-5.046733e-10
2.059764e-09
-6.821064e-10
2.018147e-09
-8.601037e-10
1.992228e-09
1.912107e-09
-1.014215e-09
-8.876564e-11
2.082951e-09
-1.920452e-10
2.072991e-09
-3.018986e-10
2.075698e-09
-3.759892e-10
2.102283e-09
-5.956504e-10
2.198067e-09
-7.380208e-10
2.088465e-09
1.921017e-09
-8.16961e-10
-6.06138e-11
2.120341e-09
-1.441875e-10
2.129565e-09
-2.414807e-10
2.140303e-09
-3.52685e-10
2.170903e-09
-3.72754e-10
2.166961e-09
-5.110494e-10
2.165099e-09
1.858924e-09
-5.462906e-10
-1.719499e-11
2.109508e-09
-8.277078e-11
2.163022e-09
-1.544413e-10
2.17225e-09
-2.266586e-10
2.19524e-09
-2.384718e-10
2.123976e-09
-1.20053e-10
1.968413e-09
1.80568e-09
-1.988657e-10
-1.598582e-12
2.079664e-09
1.323271e-11
2.112426e-09
7.971408e-12
2.136069e-09
-2.152697e-11
2.179692e-09
1.907825e-11
2.02628e-09
1.024441e-10
1.79624e-09
1.481687e-09
2.627136e-10
3.014594e-11
2.015591e-09
5.409895e-11
2.05229e-09
1.088671e-10
2.047364e-09
2.711783e-10
1.97917e-09
3.236363e-10
1.916601e-09
4.493739e-10
1.572615e-09
1.22422e-09
5.323044e-10
6.848717e-11
1.911209e-09
1.503674e-10
1.938048e-09
2.763421e-10
1.896851e-09
4.43949e-10
1.781728e-09
7.214108e-10
1.582791e-09
8.920295e-10
1.286397e-09
1.048125e-09
8.612903e-10
1.14097e-10
1.760968e-09
2.647671e-10
1.76178e-09
4.58336e-10
1.686925e-09
6.774665e-10
1.540646e-09
8.992841e-10
1.307873e-09
1.077966e-09
9.872978e-10
5.875602e-10
1.295849e-09
1.620699e-10
1.565376e-09
3.718565e-10
1.53307e-09
6.186226e-10
1.430699e-09
8.868945e-10
1.254502e-09
1.142356e-09
9.950985e-10
1.335299e-09
6.56372e-10
2.430196e-10
1.420992e-09
2.321165e-10
1.30564e-09
5.112655e-10
1.240029e-09
7.426032e-10
1.190864e-09
1.035991e-09
9.413064e-10
1.318373e-09
6.425003e-10
1.536409e-09
2.794008e-10
-1.28642e-10
1.628227e-09
2.619743e-10
1.02568e-09
5.574178e-10
9.370965e-10
9.514675e-10
7.876626e-10
1.298654e-09
5.605667e-10
1.615588e-09
2.258439e-10
1.862669e-09
-1.627168e-10
-4.1706e-10
1.840853e-09
2.946594e-10
7.219257e-10
6.072793e-10
6.220165e-10
9.335578e-10
4.555505e-10
1.245952e-09
2.121845e-10
1.500522e-09
-1.170392e-10
1.706429e-09
-5.153467e-10
-9.30973e-10
1.964829e-09
3.048993e-10
4.14555e-10
6.168026e-10
3.097468e-10
9.184336e-10
1.46839e-10
1.187422e-09
-9.063896e-11
1.401975e-09
-3.991431e-10
1.565901e-09
-7.746103e-10
-1.202756e-09
1.693813e-09
3.053463e-10
1.111031e-10
6.090018e-10
5.540156e-12
8.960632e-10
-1.487326e-10
1.141745e-09
-3.644226e-10
1.334722e-09
-6.371715e-10
1.467433e-09
-9.589149e-10
-1.318843e-09
1.524312e-09
3.154242e-10
-1.99002e-10
6.248694e-10
-3.049406e-10
9.150898e-10
-4.46577e-10
1.164333e-09
-6.331778e-10
1.358744e-09
-8.562986e-10
1.491733e-09
-1.109815e-09
-1.384186e-09
1.555125e-09
3.087828e-10
-5.033135e-10
6.061509e-10
-6.039582e-10
8.864542e-10
-7.313811e-10
1.131981e-09
-8.886017e-10
1.329736e-09
-1.064148e-09
1.46873e-09
-1.250507e-09
-1.441395e-09
1.541693e-09
2.78021e-10
-7.830141e-10
5.451209e-10
-8.763681e-10
7.97534e-10
-9.882366e-10
1.020947e-09
-1.118319e-09
1.203871e-09
-1.254371e-09
1.335308e-09
-1.38839e-09
-1.517699e-09
1.407145e-09
2.592493e-10
-1.052049e-09
5.106331e-10
-1.137473e-09
7.533422e-10
-1.235697e-09
9.740339e-10
-1.343217e-09
1.159898e-09
-1.447034e-09
1.306658e-09
-1.548908e-09
-1.695413e-09
1.451365e-09
2.375548e-10
-1.310851e-09
4.728601e-10
-1.387019e-09
7.138057e-10
-1.480748e-09
9.499781e-10
-1.579896e-09
1.146193e-09
-1.647049e-09
1.312684e-09
-1.729899e-09
-2.015581e-09
1.583126e-09
1.969983e-10
-1.544514e-09
4.035747e-10
-1.615258e-09
6.933616e-10
-1.779052e-09
9.308501e-10
-1.814928e-09
1.159992e-09
-1.877911e-09
1.354618e-09
-1.941013e-09
-2.023464e-09
1.319431e-09
1.603943e-10
-1.758994e-09
3.416748e-10
-1.828434e-09
4.584407e-10
-1.90813e-09
6.304211e-10
-1.984834e-09
7.958848e-10
-2.04324e-09
9.247627e-10
-2.083161e-09
-2.110163e-09
9.765396e-10
8.851347e-11
-1.913627e-09
2.07242e-10
-1.987513e-09
3.440627e-10
-2.059608e-09
4.893916e-10
-2.129779e-09
6.180008e-10
-2.172643e-09
6.97878e-10
-2.181297e-09
-2.173502e-09
7.149076e-10
4.670436e-11
-2.032126e-09
1.149754e-10
-2.106979e-09
2.055311e-10
-2.174618e-09
3.075321e-10
-2.237611e-09
4.037737e-10
-2.27288e-09
4.547635e-10
-2.257143e-09
-2.368378e-09
5.763254e-10
8.568153e-12
-2.111771e-09
1.814102e-11
-2.179299e-09
5.011894e-11
-2.24512e-09
1.047637e-10
-2.308912e-09
2.598423e-10
-2.437511e-09
3.137462e-10
-2.345312e-09
-2.297036e-09
1.561519e-10
-2.476839e-11
-2.151843e-09
-6.502625e-11
-2.208073e-09
-9.250045e-11
-2.272263e-09
-3.223851e-11
-2.401175e-09
-7.603161e-11
-2.40848e-09
-6.46738e-11
-2.382989e-09
-2.313969e-09
-1.312389e-10
-5.293567e-11
-2.154353e-09
-9.862897e-11
-2.230448e-09
-1.719901e-10
-2.267378e-09
-2.787679e-10
-2.341354e-09
-3.326687e-10
-2.378659e-09
-3.597557e-10
-2.380668e-09
-2.396853e-09
-3.565608e-10
-6.447353e-11
-2.135445e-09
-1.840565e-10
-2.169006e-09
-3.113851e-10
-2.204965e-09
-4.48399e-10
-2.262145e-09
-5.50505e-10
-2.314224e-09
-5.73382e-10
-2.386964e-09
-2.293987e-09
-7.310435e-10
-1.030762e-10
-2.069746e-09
-2.335573e-10
-2.084614e-09
-3.819134e-10
-2.111146e-09
-5.500645e-10
-2.153277e-09
-6.77368e-10
-2.240348e-09
-8.782818e-10
-2.222159e-09
-2.192716e-09
-1.01806e-09
-1.252635e-10
-1.976441e-09
-2.680045e-10
-1.978949e-09
-4.249671e-10
-1.996583e-09
-5.750052e-10
-2.054479e-09
-8.270346e-10
-2.043316e-09
-1.050115e-09
-2.043308e-09
-2.020493e-09
-1.258786e-09
-1.388968e-10
-1.865132e-09
-2.885298e-10
-1.860906e-09
-4.283758e-10
-1.891382e-09
-6.481822e-10
-1.873197e-09
-8.707711e-10
-1.862969e-09
-1.108134e-09
-1.852548e-09
-1.802029e-09
-1.369582e-09
-1.451243e-10
-1.743552e-09
-2.819537e-10
-1.752072e-09
-4.717394e-10
-1.731263e-09
-6.623766e-10
-1.711921e-09
-8.614993e-10
-1.695261e-09
-1.102976e-09
-1.647271e-09
-1.584756e-09
-1.360889e-09
-1.380537e-10
-1.625793e-09
-3.044972e-10
-1.609517e-09
-4.743522e-10
-1.586672e-09
-6.443445e-10
-1.567661e-09
-8.453806e-10
-1.519551e-09
-1.055314e-09
-1.462642e-09
-1.421662e-09
-1.250096e-09
-1.469417e-10
-1.496343e-09
-3.019262e-10
-1.474606e-09
-4.599696e-10
-1.450086e-09
-6.275475e-10
-1.422488e-09
-8.021966e-10
-1.366834e-09
-9.806044e-10
-1.305199e-09
-1.246642e-09
-1.178953e-09
-1.442836e-10
-1.367286e-09
-2.894667e-10
-1.346563e-09
-4.33377e-10
-1.324433e-09
-5.934619e-10
-1.281467e-09
-7.494348e-10
-1.229915e-09
-8.830624e-10
-1.19164e-09
-1.071942e-09
-1.077729e-09
-1.363976e-10
-1.244204e-09
-2.695641e-10
-1.228337e-09
-4.125377e-10
-1.196963e-09
-5.533931e-10
-1.156517e-09
-6.810471e-10
-1.1189e-09
-8.362532e-10
-1.054038e-09
-9.456121e-10
-9.788736e-10
-1.272266e-10
-1.128625e-09
-2.555523e-10
-1.113071e-09
-3.839238e-10
-1.081847e-09
-5.093316e-10
-1.044647e-09
-6.242174e-10
-1.018544e-09
-7.66859e-10
-9.257656e-10
-8.404521e-10
-8.856904e-10
-1.158424e-10
-1.02298e-09
-2.362412e-10
-1.004134e-09
-3.530107e-10
-9.765803e-10
-4.462877e-10
-9.635007e-10
-5.843004e-10
-8.929169e-10
-6.973427e-10
-8.244463e-10
-7.491895e-10
-7.999598e-10
-1.082258e-10
-9.236252e-10
-2.165725e-10
-9.058311e-10
-3.219404e-10
-8.8125e-10
-4.294305e-10
-8.66609e-10
-5.342873e-10
-7.982268e-10
-6.311365e-10
-7.374779e-10
-6.683836e-10
-7.213909e-10
-9.887945e-11
-8.324448e-10
-1.963652e-10
-8.171878e-10
-2.782034e-10
-8.084266e-10
-3.910065e-10
-7.629528e-10
-4.837364e-10
-7.142079e-10
-5.696579e-10
-6.599663e-10
-5.969344e-10
-6.490368e-10
-8.974381e-11
-7.493751e-10
-1.680831e-10
-7.467689e-10
-2.669445e-10
-7.174782e-10
-3.554565e-10
-6.821787e-10
-4.368543e-10
-6.403439e-10
-5.132433e-10
-5.907943e-10
-5.33483e-10
-5.834196e-10
-8.096729e-11
-6.741817e-10
-1.631404e-10
-6.716043e-10
-2.440158e-10
-6.434058e-10
-3.208366e-10
-6.120803e-10
-3.93671e-10
-5.740542e-10
-4.619399e-10
-5.287572e-10
-4.765128e-10
-5.246546e-10
-6.832309e-11
-6.108884e-10
-1.475139e-10
-5.98592e-10
-2.20005e-10
-5.768657e-10
-2.88819e-10
-5.491473e-10
-3.538829e-10
-5.146986e-10
-4.143711e-10
-4.736744e-10
-4.265052e-10
-4.693194e-10
-6.640149e-11
-5.488175e-10
-1.335428e-10
-5.368698e-10
-1.979156e-10
-5.177192e-10
-2.595378e-10
-4.926862e-10
-3.176147e-10
-4.616189e-10
-3.710975e-10
-4.249e-10
-3.836954e-10
-4.181814e-10
-5.975036e-11
-4.927781e-10
-1.199415e-10
-4.814658e-10
-1.777012e-10
-4.64557e-10
-2.329606e-10
-4.419673e-10
-2.85112e-10
-4.138611e-10
-3.332656e-10
-3.808717e-10
-3.490898e-10
-3.717627e-10
-5.383999e-11
-4.421027e-10
-1.075188e-10
-4.320246e-10
-1.592618e-10
-4.168647e-10
-2.087143e-10
-3.965215e-10
-2.55288e-10
-3.711736e-10
-2.983736e-10
-3.414509e-10
-3.131177e-10
-3.379162e-10
-4.813873e-11
-3.966438e-10
-9.61906e-11
-3.877281e-10
-1.424796e-10
-3.741482e-10
-1.866794e-10
-3.558676e-10
-2.282499e-10
-3.330595e-10
-2.666913e-10
-3.062939e-10
-2.806299e-10
-3.02401e-10
-4.293626e-11
-3.559564e-10
-8.590548e-11
-3.48088e-10
-1.272602e-10
-3.359467e-10
-1.667126e-10
-3.195623e-10
-2.037306e-10
-2.991284e-10
-2.376395e-10
-2.753536e-10
-2.515167e-10
-2.69695e-10
-3.822173e-11
-3.195989e-10
-7.659509e-11
-3.126657e-10
-1.13506e-10
-3.018203e-10
-1.487439e-10
-2.871244e-10
-1.816367e-10
-2.69007e-10
-2.07624e-10
-2.521656e-10
-2.217191e-10
-2.401008e-10
-3.395604e-11
-2.871613e-10
-6.817263e-11
-2.810628e-10
-1.010582e-10
-2.713926e-10
-1.324271e-10
-2.582503e-10
-1.618675e-10
-2.420661e-10
-1.892528e-10
-2.273933e-10
-1.991803e-10
-2.14213e-10
-3.010643e-11
-2.582604e-10
-6.057461e-11
-2.529043e-10
-8.983939e-11
-2.442925e-10
-1.177651e-10
-2.325467e-10
-1.440246e-10
-2.180617e-10
-1.689219e-10
-2.048784e-10
-1.796492e-10
-1.906924e-10
-2.663748e-11
-2.325425e-10
-5.373115e-11
-2.278438e-10
-7.974285e-11
-2.2018e-10
-1.045624e-10
-2.097014e-10
-1.277397e-10
-1.969184e-10
-1.501838e-10
-1.846143e-10
-1.623065e-10
-1.696238e-10
-2.351421e-11
-2.096843e-10
-4.757802e-11
-2.055593e-10
-7.069332e-11
-1.987215e-10
-9.264868e-11
-1.894981e-10
-1.103381e-10
-1.811201e-10
-1.331463e-10
-1.637953e-10
-1.466622e-10
-1.50764e-10
-2.069626e-11
-1.893977e-10
-4.202116e-11
-1.857774e-10
-6.249884e-11
-1.796764e-10
-8.211727e-11
-1.714285e-10
-1.007885e-10
-1.641858e-10
-1.183589e-10
-1.480245e-10
-1.3299e-10
-1.338958e-10
-1.815286e-11
-1.714207e-10
-3.701063e-11
-1.682393e-10
-5.512819e-11
-1.627807e-10
-7.254302e-11
-1.553711e-10
-8.944298e-11
-1.488426e-10
-1.048301e-10
-1.342856e-10
-1.2081e-10
-1.187714e-10
-1.585165e-11
-1.555191e-10
-3.248194e-11
-1.527146e-10
-4.847632e-11
-1.478082e-10
-6.390881e-11
-1.411177e-10
-7.895366e-11
-1.351954e-10
-9.268177e-11
-1.220821e-10
-1.09941e-10
-1.052222e-10
-1.376126e-11
-1.414853e-10
-2.837374e-11
-1.389982e-10
-4.244467e-11
-1.345644e-10
-5.597245e-11
-1.285947e-10
-6.947717e-11
-1.229343e-10
-8.177517e-11
-1.111947e-10
-1.002241e-10
-9.308374e-11
-1.185262e-11
-1.291356e-10
-2.463591e-11
-1.269023e-10
-3.690831e-11
-1.229296e-10
-4.714962e-11
-1.192171e-10
-6.07835e-11
-1.103999e-10
-7.196772e-11
-1.013194e-10
-9.150443e-11
-8.221018e-11
-1.008544e-11
-1.183197e-10
-2.118101e-11
-1.162804e-10
-3.196832e-11
-1.125904e-10
-4.265425e-11
-1.092471e-10
-5.322718e-11
-1.007858e-10
-6.315434e-11
-9.261186e-11
-8.364837e-11
-7.247625e-11
-8.431119e-12
-1.089082e-10
-1.796914e-11
-1.069916e-10
-2.733819e-11
-1.034745e-10
-3.690183e-11
-1.002342e-10
-4.620193e-11
-9.231728e-11
-5.520607e-11
-8.474566e-11
-7.651105e-11
-6.376502e-11
-6.851087e-12
-1.007995e-10
-1.493012e-11
-9.892088e-11
-2.300524e-11
-9.54529e-11
-3.144094e-11
-9.219521e-11
-3.979765e-11
-8.468732e-11
-4.804261e-11
-7.757666e-11
-6.995924e-11
-5.599131e-11
-5.294802e-12
-9.392868e-11
-1.198644e-11
-9.197158e-11
-1.888577e-11
-8.840026e-11
-2.634439e-11
-8.498817e-11
-3.394097e-11
-7.773163e-11
-4.159368e-11
-7.096307e-11
-6.386735e-11
-4.908417e-11
-3.703736e-12
-8.826767e-11
-9.048315e-12
-8.607048e-11
-1.488855e-11
-8.219513e-11
-2.154294e-11
-7.845867e-11
-2.856635e-11
-7.129453e-11
-3.580713e-11
-6.476202e-11
-5.811751e-11
-4.299439e-11
-1.997642e-12
-8.38373e-11
-6.006952e-12
-8.116765e-11
-1.091499e-11
-7.67173e-11
-1.696731e-11
-7.244271e-11
-2.363245e-11
-6.521345e-11
-3.065229e-11
-5.883864e-11
-5.260386e-11
-3.769405e-11
-2.881764e-14
-8.076194e-11
-2.718021e-12
-7.721164e-11
-6.831597e-12
-7.186053e-11
-1.257041e-11
-6.672229e-11
-1.912119e-11
-5.932926e-11
-2.612506e-11
-5.306964e-11
-4.724209e-11
-3.318577e-11
2.373131e-12
-7.927814e-11
1.038902e-12
-7.423294e-11
-1.787815e-12
-6.822805e-11
-8.278156e-12
-6.036446e-11
-1.505657e-11
-5.343646e-11
-2.226156e-11
-4.736634e-11
-4.352805e-11
-2.788941e-11
5.511554e-12
-7.987373e-11
5.356152e-12
-7.21651e-11
1.748933e-12
-6.399162e-11
-4.314901e-12
-5.479393e-11
-1.151316e-11
-4.756789e-11
-1.784393e-11
-4.289824e-11
-3.828793e-11
-2.53325e-11
9.853751e-12
-8.35966e-11
1.060967e-11
-7.116499e-11
6.371578e-12
-5.976915e-11
-5.586089e-13
-4.912137e-11
-7.646683e-12
-4.24373e-11
-1.57786e-11
-3.718718e-11
-3.325769e-11
-2.353459e-11
1.634772e-11
-9.306356e-11
1.724613e-11
-7.157756e-11
1.137603e-11
-5.55037e-11
3.392908e-12
-4.358459e-11
-5.704695e-12
-3.627688e-11
-1.443193e-11
-3.164918e-11
-2.851585e-11
-2.245628e-11
2.793481e-11
-1.21881e-10
2.632621e-11
-7.578857e-11
1.71183e-11
-5.049203e-11
6.041328e-12
-3.682929e-11
-4.399368e-12
-3.006385e-11
-1.374778e-11
-2.635157e-11
-2.413743e-11
-2.201161e-11
5.69157e-11
-2.033188e-10
4.21725e-11
-8.728026e-11
2.328349e-11
-4.31515e-11
8.378235e-12
-2.841531e-11
-3.647534e-12
-2.354021e-11
-1.360559e-11
-2.127192e-11
-2.012588e-11
-2.205798e-11
1.266365e-10
7.217151e-11
3.140474e-11
9.994777e-12
-3.508172e-12
-1.389041e-11
-2.243446e-11
-3.05751e-11
-1.391226e-11
-3.642987e-11
-1.483706e-11
-2.045177e-11
-1.577102e-11
-2.043581e-11
-2.120244e-11
-8.679127e-12
2.177043e-11
-2.206243e-11
-9.231511e-12
2.231849e-11
-2.253974e-11
-9.62776e-12
2.287375e-11
-2.240737e-11
-9.397235e-12
-3.083268e-11
-1.095739e-11
-3.673485e-11
-1.256256e-11
-2.072738e-11
-1.42779e-11
-2.024036e-11
8.335751e-12
-2.135552e-11
-8.184322e-12
9.113419e-12
2.194492e-11
-2.219839e-11
-9.021686e-12
9.464729e-12
2.232042e-11
-2.21658e-11
-9.462214e-12
9.730794e-12
2.152952e-11
-1.91611e-11
-1.079802e-11
-3.125928e-11
-7.618833e-12
-3.739951e-11
-9.882454e-12
-4.230359e-11
-1.191403e-11
-2.221289e-11
-7.473008e-12
7.823179e-12
7.693615e-12
-2.224859e-11
-7.444847e-12
8.952213e-12
-2.246185e-11
-8.856183e-12
9.481455e-12
2.256216e-11
-2.239785e-11
-9.496485e-12
1.104877e-11
2.191974e-11
-2.03787e-11
-1.125154e-11
-3.189921e-11
-3.87735e-12
-3.801257e-11
-7.004141e-12
-2.084432e-11
-1.00739e-11
-2.150568e-11
-2.212666e-11
-6.548273e-12
8.685125e-12
2.272613e-11
-2.296375e-11
-8.604517e-12
9.500018e-12
2.307251e-11
-2.293259e-11
-9.488178e-12
1.147237e-11
2.248868e-11
-2.093162e-11
-1.16703e-11
-3.30536e-11
3.213129e-13
-3.934901e-11
-3.660373e-12
-2.209172e-11
-7.477247e-12
-2.21432e-11
6.125869e-12
-2.282111e-11
-5.722302e-12
8.468983e-12
2.342021e-11
-2.37192e-11
-8.308361e-12
9.456098e-12
2.385764e-11
-2.375613e-11
-9.396504e-12
1.187494e-11
2.335007e-11
-2.175768e-11
-1.206239e-11
-3.482737e-11
4.930884e-12
-4.121926e-11
8.055525e-14
-2.303818e-11
-4.584458e-12
-2.314167e-11
5.135239e-12
-2.375325e-11
-4.695149e-12
8.114291e-12
-2.474724e-11
-7.889807e-12
2.440105e-11
9.303218e-12
2.492635e-11
-2.487196e-11
-9.187114e-12
1.209783e-11
2.452493e-11
-2.295759e-11
-1.2164e-11
-3.733356e-11
9.887879e-12
-4.37863e-11
4.162994e-12
-2.432428e-11
-1.39855e-12
-2.450685e-11
-2.495742e-11
-3.591247e-12
3.99242e-12
7.576018e-12
2.460392e-11
-2.602715e-11
-6.236971e-12
9.051245e-12
2.629501e-11
-2.627013e-11
-8.897218e-12
1.224172e-11
2.594034e-11
-2.429483e-11
-1.229698e-11
-4.065937e-11
1.35823e-11
-4.716124e-11
8.548882e-12
-2.601819e-11
2.065332e-12
-2.627847e-11
2.780065e-12
-2.667984e-11
-2.310325e-12
5.796142e-12
-2.778046e-11
-5.387425e-12
2.731561e-11
8.726426e-12
2.80208e-11
-2.801621e-11
-8.541821e-12
1.233174e-11
2.769978e-11
-2.597804e-11
-1.236025e-11
-4.671331e-11
1.88808e-11
-5.141777e-11
1.131678e-11
-2.814156e-11
5.78539e-12
-2.8495e-11
-2.877068e-11
-9.133005e-13
1.383044e-12
4.950347e-12
2.942166e-11
-2.990113e-11
-4.503212e-12
8.344056e-12
3.015379e-11
-3.015593e-11
-8.137589e-12
1.238089e-11
2.982957e-11
-2.798441e-11
-1.241392e-11
-5.231032e-11
2.442349e-11
-5.8786e-11
1.599391e-11
-3.074248e-11
7.558721e-12
-3.119259e-11
-1.331779e-13
-3.133575e-11
5.976155e-13
4.026144e-12
3.199527e-11
-3.248851e-11
-3.540677e-12
7.920551e-12
3.275064e-11
-3.27529e-11
-7.693861e-12
1.245514e-11
3.240443e-11
-3.040628e-11
-1.249959e-11
-5.890728e-11
3.027296e-11
-6.551282e-11
2.093795e-11
-3.502143e-11
1.150447e-11
-3.570565e-11
-1.774439e-12
-3.442282e-11
1.075097e-12
3.020682e-12
3.5081e-11
-3.558923e-11
-2.494382e-12
7.453743e-12
3.58637e-11
-3.587123e-11
-7.196138e-12
1.254333e-11
3.550635e-11
-3.335166e-11
-1.257377e-11
-6.651959e-11
3.650965e-11
-7.335624e-11
2.621055e-11
-3.895146e-11
1.571115e-11
-3.977027e-11
-2.30812e-12
-3.936936e-11
2.648146e-12
1.923789e-12
4.001815e-11
-3.921549e-11
-2.681306e-12
6.919297e-12
3.953475e-11
-3.955144e-11
-6.621255e-12
1.258587e-11
3.917284e-11
-3.684343e-11
-1.258962e-11
-7.519948e-11
4.323672e-11
-8.236312e-11
3.188351e-11
-4.34926e-11
2.023353e-11
-4.445815e-11
-4.016385e-12
-4.387195e-11
4.342533e-12
2.140253e-12
4.451263e-11
-4.497602e-11
-1.598107e-12
6.295013e-12
4.519644e-11
-4.381091e-11
-7.358905e-12
1.259013e-11
4.346261e-11
-4.093676e-11
-1.255561e-11
-8.501103e-11
5.056487e-11
-9.260578e-11
3.804394e-11
-4.867775e-11
2.512297e-11
-4.979843e-11
-5.849532e-12
-4.902726e-11
6.17109e-12
1.00799e-12
4.965902e-11
-5.012493e-11
-4.26846e-13
7.060355e-12
5.034031e-11
-5.029413e-11
-6.732976e-12
1.240295e-11
4.990718e-11
-4.617159e-11
-1.327864e-11
-9.605157e-11
5.86261e-11
-1.041866e-10
4.478918e-11
-5.45706e-11
3.046091e-11
-5.585536e-11
-7.838224e-12
-5.487293e-11
8.139883e-12
-1.930817e-13
5.549682e-11
-5.594201e-11
7.948878e-13
6.44872e-12
5.60795e-11
-5.582061e-11
-6.274433e-12
1.263736e-11
5.481175e-11
-5.035359e-11
-1.410778e-11
-1.08431e-10
6.754811e-11
-1.172295e-10
5.223446e-11
-6.122673e-11
3.632694e-11
-6.269312e-11
-9.983305e-12
-6.149867e-11
1.028439e-11
-1.454069e-12
6.212696e-11
-6.257715e-11
2.107112e-12
6.042361e-12
6.271236e-11
-6.248019e-11
-5.772794e-12
1.396643e-11
6.170099e-11
-5.82983e-11
-1.395772e-11
-1.222937e-10
7.747825e-11
-1.318815e-10
6.050059e-11
-6.873282e-11
4.284688e-11
-7.041594e-11
-1.232673e-11
-6.893687e-11
1.259097e-11
-2.836794e-12
6.960552e-11
-7.006016e-11
3.539125e-12
5.499608e-12
7.019491e-11
-6.99076e-11
-5.210107e-12
1.410355e-11
6.896841e-11
-6.504196e-11
-1.426675e-11
-1.377868e-10
8.856254e-11
-1.482886e-10
6.970864e-11
-7.713852e-11
5.006227e-11
-7.903822e-11
-1.514081e-11
-7.737012e-11
1.546418e-11
-1.568547e-12
7.825667e-11
-7.851864e-11
2.154294e-12
4.944485e-12
7.862054e-11
-7.826511e-11
-4.63908e-12
1.442923e-11
7.718344e-11
-7.285302e-11
-1.459614e-11
-1.551087e-10
1.009764e-10
-1.666702e-10
8.000296e-11
-8.659947e-11
5.811841e-11
-8.872244e-11
-1.79997e-11
-8.684278e-11
1.836927e-11
-2.910163e-12
8.768942e-11
-8.802503e-11
3.627715e-12
4.334093e-12
8.807741e-11
-8.763732e-11
-4.022883e-12
1.480717e-11
8.637685e-11
-8.153337e-11
-1.505313e-11
-1.744568e-10
1.14922e-10
-1.872469e-10
9.15538e-11
-9.71971e-11
6.71421e-11
-9.958712e-11
-2.121795e-11
-9.743327e-11
2.162115e-11
-4.44701e-12
9.835616e-11
-9.868148e-11
5.223935e-12
3.710017e-12
9.87078e-11
-9.818727e-11
-3.380514e-12
1.535286e-11
9.673306e-11
-9.134473e-11
-1.565668e-11
-1.960763e-10
1.305996e-10
-2.102894e-10
1.045608e-10
-1.090934e-10
7.731145e-11
-1.117887e-10
-2.480695e-11
-1.093144e-10
2.524019e-11
-6.123573e-12
1.103015e-10
-1.106377e-10
6.986548e-12
3.042931e-12
1.106483e-10
-1.100602e-10
-2.673892e-12
1.601152e-11
1.084259e-10
-1.024682e-10
-1.633583e-11
-2.202215e-10
1.482483e-10
-2.360704e-10
1.192474e-10
-1.225435e-10
8.9079e-11
-1.25616e-10
-2.878571e-11
-1.226211e-10
2.912621e-11
-7.980344e-12
1.236748e-10
-1.240279e-10
8.94402e-12
2.293452e-12
1.240321e-10
-1.233766e-10
-1.874759e-12
1.668108e-11
1.215478e-10
-1.149631e-10
-1.703317e-11
-2.471257e-10
1.681024e-10
-2.646081e-10
1.356341e-10
-1.388293e-10
1.011392e-10
-1.380277e-10
-3.27773e-11
-1.369016e-10
3.115369e-11
-1.008019e-11
1.385613e-10
-1.389934e-10
1.12147e-11
1.430658e-12
1.389779e-10
-1.382968e-10
-9.075509e-13
1.74072e-11
1.362573e-10
-1.289896e-10
-1.778399e-11
-2.772381e-10
1.908561e-10
-2.972524e-10
1.546493e-10
-3.141914e-10
1.182252e-10
-1.579429e-10
3.704125e-11
-3.197516e-11
-3.447523e-11
-1.618356e-10
3.647353e-11
-1.625968e-11
-1.604121e-10
1.960688e-11
5.91326e-13
1.562543e-10
-1.551307e-10
-3.374827e-13
1.82099e-11
1.527834e-10
-1.447404e-10
-1.86353e-11
-3.105386e-10
2.161288e-10
-3.316496e-10
1.74818e-10
-1.664802e-10
1.31236e-10
-1.780238e-10
-1.745376e-10
4.558781e-11
-2.37133e-11
1.744622e-10
-1.751515e-10
2.525361e-11
-3.303865e-13
1.747764e-10
-1.738772e-10
1.004506e-12
1.911121e-11
1.712873e-10
-1.62366e-10
-1.958466e-11
-3.485316e-10
2.451941e-10
-3.729993e-10
1.984334e-10
-1.937328e-10
1.507835e-10
-1.984401e-10
-5.093886e-11
-1.942011e-10
5.19949e-11
-2.726028e-11
1.957537e-10
-1.968043e-10
2.929405e-11
-1.668171e-12
1.961711e-10
-1.95081e-10
2.35637e-12
2.010269e-11
1.921176e-10
-1.822002e-10
-2.063845e-11
-3.912968e-10
2.798683e-10
-4.18118e-10
2.245229e-10
-2.167949e-10
1.72243e-10
-2.221346e-10
-5.847065e-11
-2.173561e-10
5.974758e-11
-3.165405e-11
2.193964e-10
-2.206309e-10
3.402859e-11
-3.05313e-12
2.201689e-10
-2.18797e-10
3.689388e-12
2.122364e-11
2.155202e-10
-2.045341e-10