/*--------------------------------*- C++ -*----------------------------------*\
| =========                 |                                                 |
| \\      /  F ield         | OpenFOAM: The Open Source CFD Toolbox           |
|  \\    /   O peration     | Version:  2206                                  |
|   \\  /    A nd           | Website:  www.openfoam.com                      |
|    \\/     M anipulation  |                                                 |
\*---------------------------------------------------------------------------*/
FoamFile
{
    version     2.0;
    format      ascii;
    arch        "LSB;label=32;scalar=64";
    class       surfaceScalarField;
    location    "2.4";
    object      phi.a;
}
// * * * * * * * * * * * * * * * * * * * * * * * * * * * * * * * * * * * * * //

dimensions      [0 3 -1 0 0 0 0];

oriented        oriented;

internalField   nonuniform List<scalar> 
26037
(
-2.59012e-10
-5.229484e-11
-1.255582e-10
-3.159259e-11
-7.049181e-11
-1.236853e-11
-4.638502e-11
-5.797593e-12
-3.519505e-11
-3.609967e-12
-2.77442e-11
-2.642063e-12
-2.169119e-12
-2.196798e-11
-1.261796e-10
-9.059884e-11
-8.843827e-11
-5.570453e-11
-5.735215e-11
-2.446529e-11
-4.279636e-11
-1.264923e-11
-3.379025e-11
-7.821417e-12
-2.696423e-11
-5.388645e-12
-4.059917e-12
-2.148747e-11
-4.055346e-11
-2.814879e-11
-4.716268e-11
-2.889021e-11
-4.154921e-11
-2.160953e-11
-3.557912e-11
-1.375979e-11
-2.970349e-11
-9.546164e-12
-2.447508e-11
-6.965145e-12
-5.362011e-12
-1.986005e-11
-1.800465e-11
-9.243358e-12
-2.706663e-11
-1.519022e-11
-2.980298e-11
-1.540915e-11
-2.759104e-11
-1.268001e-11
-2.454263e-11
-9.414328e-12
-2.102106e-11
-7.433742e-12
-6.010202e-12
-1.745395e-11
-1.014875e-11
-3.868735e-12
-1.687082e-11
-8.617331e-12
-2.047135e-11
-1.051166e-11
-2.117168e-11
-9.987897e-12
-1.94485e-11
-8.87738e-12
-1.729724e-11
-7.179803e-12
-6.143827e-12
-1.467894e-11
-6.339072e-12
-1.895765e-12
-1.097809e-11
-5.138769e-12
-1.41725e-11
-7.181363e-12
-1.548806e-11
-7.665989e-12
-1.533921e-11
-7.453814e-12
-1.373625e-11
-6.915671e-12
-5.96108e-12
-1.185427e-11
-4.295582e-12
-1.094558e-12
-7.446966e-12
-3.290558e-12
-1.006883e-11
-4.931287e-12
-1.124094e-11
-6.042797e-12
-1.145843e-11
-6.201075e-12
-1.078409e-11
-6.114262e-12
-5.838088e-12
-9.167569e-12
-3.082811e-12
-7.247688e-13
-5.200014e-12
-2.283871e-12
-6.995775e-12
-3.641587e-12
-8.069892e-12
-4.776489e-12
-8.346661e-12
-5.19882e-12
-7.892442e-12
-5.403111e-12
-5.3978e-12
-6.824414e-12
-2.296589e-12
-5.356228e-13
-3.694128e-12
-1.715917e-12
-4.934525e-12
-2.849872e-12
-5.695045e-12
-3.910591e-12
-5.862803e-12
-4.462999e-12
-5.444722e-12
-4.8406e-12
-5.022478e-12
-4.503526e-12
-1.746755e-12
-4.333212e-13
-2.618952e-12
-1.390806e-12
-3.417361e-12
-2.367871e-12
-3.860834e-12
-3.345922e-12
-3.85384e-12
-3.958161e-12
-3.374286e-12
-4.43756e-12
-4.74622e-12
-2.448903e-12
-1.336179e-12
-3.778635e-13
-1.806294e-12
-1.208013e-12
-2.244167e-12
-2.08546e-12
-2.396987e-12
-2.998429e-12
-2.193499e-12
-3.641233e-12
-1.600544e-12
-4.183619e-12
-4.57997e-12
-6.265968e-13
-1.011571e-12
-3.503555e-13
-1.158497e-12
-1.113722e-12
-1.29466e-12
-1.936376e-12
-1.185646e-12
-2.809105e-12
-7.830169e-13
-3.474682e-12
-5.089369e-14
-4.061649e-12
-4.522854e-12
1.010387e-12
-7.403495e-13
-3.408708e-13
-6.155066e-13
-1.07825e-12
-4.911842e-13
-1.880483e-12
-1.445673e-13
-2.737589e-12
4.52822e-13
-3.429176e-12
1.33613e-12
-4.054549e-12
-4.569041e-12
2.507619e-12
-5.026237e-13
-3.438547e-13
-1.386897e-13
-1.084551e-12
2.185294e-13
-1.892246e-12
7.804534e-13
-2.747022e-12
1.57109e-12
-3.478771e-12
2.611196e-12
-4.146377e-12
-4.711526e-12
3.906775e-12
-2.848626e-13
-3.56176e-13
2.980909e-13
-1.122871e-12
8.698698e-13
-1.957253e-12
1.590182e-12
-2.795328e-12
2.613991e-12
-3.653479e-12
3.816872e-12
-4.333764e-12
-4.944991e-12
5.245093e-12
-7.741573e-14
-3.759428e-13
7.141328e-13
-1.187234e-12
1.495163e-12
-2.069482e-12
2.446929e-12
-2.9537e-12
3.625961e-12
-3.863014e-12
4.987634e-12
-4.599872e-12
-5.265047e-12
6.55601e-12
1.27057e-13
-4.021555e-13
1.12365e-12
-1.27394e-12
2.108557e-12
-2.219914e-12
3.258263e-12
-3.167185e-12
4.625322e-12
-4.136729e-12
6.154519e-12
-4.942716e-12
-5.668799e-12
7.870155e-12
3.341146e-13
-4.344413e-13
1.538212e-12
-1.381693e-12
2.729537e-12
-2.407046e-12
4.079083e-12
-3.43268e-12
5.641378e-12
-4.476649e-12
7.345332e-12
-5.361672e-12
-6.155726e-12
9.21609e-12
5.48719e-13
-4.728087e-13
1.967748e-12
-1.510339e-12
3.373221e-12
-2.630623e-12
4.930659e-12
-3.748831e-12
6.691203e-12
-4.869131e-12
8.584913e-12
-5.850275e-12
-6.726289e-12
1.062087e-11
7.75287e-13
-5.175842e-13
2.421226e-12
-1.661159e-12
4.053178e-12
-2.893182e-12
5.829811e-12
-4.119814e-12
7.750762e-12
-5.305222e-12
9.895441e-12
-6.448784e-12
-7.395231e-12
1.211166e-11
1.018266e-12
-5.695659e-13
2.907374e-12
-1.83667e-12
4.782544e-12
-3.198753e-12
6.799168e-12
-4.553621e-12
8.948731e-12
-5.856996e-12
1.131211e-11
-7.116561e-12
-8.161311e-12
1.371623e-11
1.28163e-12
-6.301047e-13
3.434677e-12
-2.040669e-12
5.57391e-12
-3.552998e-12
7.849326e-12
-5.054416e-12
1.024546e-11
-6.494156e-12
1.285152e-11
-7.882023e-12
-9.037898e-12
1.546513e-11
1.569261e-12
-7.010588e-13
4.011083e-12
-2.278892e-12
6.440419e-12
-3.965324e-12
9.000798e-12
-5.635104e-12
1.167076e-11
-7.22987e-12
1.45357e-11
-8.7437e-12
-1.003356e-11
1.739287e-11
1.885068e-12
-7.850954e-13
4.64474e-12
-2.559362e-12
7.394788e-12
-4.448427e-12
1.027265e-11
-6.312998e-12
1.324988e-11
-8.086839e-12
1.634373e-11
-9.724704e-12
-1.119534e-11
1.953226e-11
2.232311e-12
-8.858343e-13
5.342939e-12
-2.892616e-12
8.449547e-12
-5.018862e-12
1.168311e-11
-7.108718e-12
1.501097e-11
-9.088151e-12
1.839655e-11
-1.09019e-11
-1.253288e-11
2.193735e-11
2.613763e-12
-1.008188e-12
6.111736e-12
-3.292489e-12
9.61469e-12
-5.697376e-12
1.324597e-11
-8.046824e-12
1.696605e-11
-1.025771e-11
2.072041e-11
-1.22688e-11
-1.407466e-11
2.462851e-11
3.030649e-12
-1.158633e-12
6.954905e-12
-3.777482e-12
1.089796e-11
-6.512006e-12
1.497505e-11
-9.16062e-12
1.913834e-11
-1.163115e-11
2.331989e-11
-1.3857e-11
-1.582377e-11
2.763358e-11
3.481775e-12
-1.346133e-12
7.873573e-12
-4.373484e-12
1.23023e-11
-7.499479e-12
1.687822e-11
-1.049355e-11
2.154491e-11
-1.325281e-11
2.622299e-11
-1.571127e-11
-1.783252e-11
3.093605e-11
3.965334e-12
-1.578463e-12
8.864627e-12
-5.106087e-12
1.382655e-11
-8.707553e-12
1.895677e-11
-1.210103e-11
2.419155e-11
-1.517593e-11
2.945124e-11
-1.787061e-11
-2.016021e-11
3.465054e-11
4.458428e-12
-1.868689e-12
9.918974e-12
-6.027161e-12
1.546399e-11
-1.020745e-11
2.120538e-11
-1.406002e-11
2.707143e-11
-1.747164e-11
3.297268e-11
-2.03862e-11
-2.279842e-11
3.880061e-11
4.962734e-12
-2.251033e-12
1.101951e-11
-7.195733e-12
1.719932e-11
-1.207194e-11
2.361156e-11
-1.647418e-11
3.018079e-11
-2.024648e-11
3.680351e-11
-2.334857e-11
-2.581329e-11
4.336089e-11
5.496863e-12
-2.757038e-12
1.207967e-11
-8.672386e-12
1.899028e-11
-1.444487e-11
2.615913e-11
-1.949011e-11
3.350705e-11
-2.364792e-11
4.093614e-11
-2.688544e-11
-2.927918e-11
4.832097e-11
6.02666e-12
-3.425275e-12
1.315863e-11
-1.060281e-11
2.069074e-11
-1.742059e-11
2.880697e-11
-2.340906e-11
3.703508e-11
-2.790931e-11
4.536921e-11
-3.117394e-11
-3.330813e-11
5.368196e-11
6.528055e-12
-4.3045e-12
1.425774e-11
-1.312811e-11
2.246172e-11
-2.128647e-11
3.152519e-11
-2.835515e-11
4.074164e-11
-3.324251e-11
5.009107e-11
-3.642456e-11
-3.803969e-11
5.944486e-11
6.969985e-12
-5.445167e-12
1.528875e-11
-1.636609e-11
2.425236e-11
-2.622094e-11
3.38691e-11
-3.427173e-11
4.453445e-11
-4.01851e-11
5.508704e-11
-4.292654e-11
-4.370161e-11
6.557652e-11
7.329187e-12
-6.883335e-12
1.622177e-11
-2.039333e-11
2.603343e-11
-3.230553e-11
3.670159e-11
-4.166952e-11
4.803651e-11
-4.808061e-11
6.042356e-11
-5.130468e-11
-5.102244e-11
7.30034e-11
7.607696e-12
-8.614992e-12
1.710406e-11
-2.514355e-11
2.787169e-11
-3.942757e-11
3.973269e-11
-5.043803e-11
5.237699e-11
-5.771986e-11
6.718551e-11
-6.194707e-11
-6.166333e-11
8.457899e-11
7.896951e-12
-1.056385e-11
1.812025e-11
-3.036768e-11
2.998962e-11
-4.730437e-11
4.316657e-11
-6.033098e-11
5.790054e-11
-6.946805e-11
7.653583e-11
-7.603661e-11
-7.924171e-11
1.034274e-10
8.35841e-12
-1.253256e-11
1.950551e-11
-3.56827e-11
3.254755e-11
-5.551944e-11
4.751601e-11
-7.134112e-11
6.623107e-11
-8.441141e-11
9.165136e-11
-9.635359e-11
-1.067605e-10
1.308572e-10
9.025793e-12
-1.420712e-11
2.130947e-11
-4.073195e-11
3.58612e-11
-6.359086e-11
5.358894e-11
-8.34236e-11
7.769076e-11
-1.027086e-10
1.118605e-10
-1.226669e-10
-1.440613e-10
1.637847e-10
1.044922e-11
-1.555852e-11
2.314155e-11
-4.398939e-11
3.992172e-11
-7.113932e-11
6.132248e-11
-9.56423e-11
9.124151e-11
-1.220835e-10
1.344298e-10
-1.512396e-10
-1.86439e-10
2.063336e-10
1.220549e-11
-1.627069e-11
2.654803e-11
-4.592351e-11
4.350598e-11
-7.471937e-11
6.940684e-11
-1.060256e-10
1.042479e-10
-1.378298e-10
1.715608e-10
-1.770491e-10
-2.341004e-10
3.339794e-10
1.42726e-11
-1.600749e-11
2.998666e-11
-4.567196e-11
4.909633e-11
-7.539118e-11
7.435712e-11
-1.07416e-10
1.32593e-10
-1.472715e-10
2.964102e-10
-2.016454e-10
-2.833696e-10
6.160356e-10
1.642651e-11
-1.463802e-11
3.321316e-11
-4.271818e-11
5.324891e-11
-7.138727e-11
9.453061e-11
-1.043143e-10
2.421188e-10
-1.528652e-10
5.578707e-10
-2.048254e-10
-3.190694e-10
1.041469e-09
1.835978e-11
-1.24449e-11
3.598918e-11
-3.726371e-11
6.282952e-11
-6.345826e-11
1.843481e-10
-1.015191e-10
4.720913e-10
-1.654039e-10
9.802717e-10
-2.466816e-10
-2.555549e-10
1.576448e-09
1.988717e-11
-9.901859e-12
3.857143e-11
-3.049857e-11
1.151467e-10
-5.684695e-11
3.799896e-10
-9.127836e-11
8.150175e-10
-1.725932e-10
1.421704e-09
-2.732937e-10
-3.715554e-10
2.348655e-09
2.133679e-11
-7.225242e-12
6.259384e-11
-2.558085e-11
2.472446e-10
-5.843022e-11
6.708601e-10
-1.119036e-10
1.238998e-09
-1.27718e-10
1.984093e-09
-2.76887e-10
-3.720216e-10
2.876615e-09
2.447554e-11
-4.648571e-12
1.424029e-10
-2.441461e-11
4.600959e-10
-6.611788e-11
9.758209e-10
-1.318641e-10
1.800651e-09
-2.1212e-10
2.765527e-09
-3.05858e-10
-9.612936e-11
3.652144e-09
4.7222e-11
-4.217792e-12
2.736993e-10
-2.729618e-11
7.145411e-10
-7.611061e-11
1.353788e-09
-1.480147e-10
2.181942e-09
-2.370379e-10
3.182526e-09
-3.323937e-10
-3.665013e-10
4.745783e-09
9.981042e-11
-5.365912e-12
4.278751e-10
-3.247319e-11
9.76715e-10
-8.337104e-11
1.732519e-09
-1.604815e-10
2.676906e-09
-2.480188e-10
3.79145e-09
-3.335061e-10
-4.006558e-10
5.116227e-09
1.910465e-10
-1.264214e-11
6.310402e-10
-5.356773e-11
1.22733e-09
-5.148925e-11
2.087474e-09
-1.613333e-10
3.157738e-09
-2.540452e-10
4.412526e-09
-3.288639e-10
-3.42793e-10
5.786022e-09
2.96418e-10
-1.973336e-11
8.052764e-10
-7.477512e-11
1.620674e-09
-1.497232e-10
2.695539e-09
-2.223078e-10
4.062034e-09
-3.514806e-10
5.673115e-09
-4.248487e-10
1.893507e-10
6.856369e-09
3.936419e-10
-2.53889e-11
9.650026e-10
-8.884099e-11
1.776104e-09
-1.760718e-10
2.847698e-09
-2.816632e-10
4.118472e-09
-4.004948e-10
5.598316e-09
-5.084747e-10
-3.723618e-10
7.847043e-09
4.647908e-10
-2.926426e-11
1.08594e-09
-9.811991e-11
1.945335e-09
-1.886853e-10
3.031059e-09
-3.005698e-10
4.31221e-09
-4.254845e-10
5.762214e-09
-5.574135e-10
-6.613995e-10
7.596222e-09
5.198502e-10
-3.514725e-11
1.184456e-09
-1.135856e-10
2.103199e-09
-2.128962e-10
3.260839e-09
-3.371914e-10
4.627597e-09
-4.807845e-10
6.163255e-09
-6.396234e-10
-8.062965e-10
7.864252e-09
5.7379e-10
-4.523752e-11
1.291045e-09
-1.4289e-10
2.292792e-09
-2.643868e-10
3.568817e-09
-4.18879e-10
5.092979e-09
-6.020942e-10
6.826512e-09
-8.099623e-10
-1.038004e-09
8.731452e-09
5.760667e-10
-4.925186e-11
1.298754e-09
-1.58478e-10
2.30754e-09
-2.998846e-10
3.58991e-09
-4.830027e-10
5.119173e-09
-7.038122e-10
6.857648e-09
-9.582503e-10
-1.244952e-09
8.766394e-09
5.251779e-10
-4.759942e-11
1.201637e-09
-1.571393e-10
2.13331e-09
-3.04504e-10
3.297705e-09
-4.972806e-10
4.662633e-09
-7.314262e-10
6.19056e-09
-1.004507e-09
-1.345148e-09
7.876007e-09
4.737289e-10
-4.410164e-11
1.112466e-09
-1.4916e-10
1.990383e-09
-2.95007e-10
3.084789e-09
-4.889006e-10
4.358933e-09
-7.204784e-10
5.789805e-09
-1.004461e-09
-1.581377e-09
7.601517e-09
4.078971e-10
-3.729611e-11
1.003301e-09
-1.318389e-10
1.842231e-09
-2.785514e-10
2.936974e-09
-4.972679e-10
4.210159e-09
-7.039311e-10
5.67324e-09
-1.007902e-09
-2.099173e-09
7.920973e-09
3.165997e-10
-2.936265e-11
8.554326e-10
-1.128546e-10
1.727432e-09
-3.24973e-10
2.850685e-09
-4.765088e-10
4.249208e-09
-7.205503e-10
5.857153e-09
-1.025597e-09
-1.425583e-09
6.930038e-09
2.175091e-10
-2.236523e-11
6.939326e-10
-9.567592e-11
1.316333e-09
-2.308842e-10
2.203249e-09
-4.13422e-10
3.287263e-09
-6.480154e-10
4.529666e-09
-9.311995e-10
-1.266171e-09
5.849121e-09
1.282683e-10
-1.603762e-11
4.876268e-10
-7.308978e-11
1.067384e-09
-1.823634e-10
1.851735e-09
-3.419296e-10
2.816524e-09
-5.488605e-10
3.935753e-09
-8.031326e-10
-1.176275e-09
5.259021e-09
7.6406e-11
-1.154617e-11
3.337501e-10
-5.141637e-11
8.045172e-10
-1.336244e-10
1.470602e-09
-2.634504e-10
2.323791e-09
-4.468246e-10
3.346783e-09
-6.749485e-10
-1.365633e-09
5.014015e-09
5.151603e-11
-1.034956e-11
1.991219e-10
-3.572214e-11
5.450285e-10
-8.875088e-11
1.086448e-09
-1.910807e-10
1.967668e-09
-4.351357e-10
2.970907e-09
-5.700523e-10
-8.430848e-10
3.818292e-09
4.39941e-11
-8.593395e-12
1.125772e-10
-2.620885e-11
3.240566e-10
-5.619283e-11
7.824058e-10
-1.503166e-10
1.347463e-09
-2.575099e-10
2.099727e-09
-4.118035e-10
-6.397217e-10
3.011195e-09
3.715673e-11
-6.46228e-12
8.155765e-11
-2.231851e-11
1.846349e-10
-3.942791e-11
4.596661e-10
-7.916653e-11
8.972533e-10
-1.57032e-10
1.5038e-09
-2.840209e-10
-5.839389e-10
2.473909e-09
3.123703e-11
-4.854287e-12
6.644345e-11
-1.59782e-11
1.111018e-10
-2.841101e-11
2.43135e-10
-4.629722e-11
5.322777e-10
-8.878588e-11
1.049062e-09
-2.103927e-10
-3.143393e-10
1.615456e-09
2.624251e-11
-3.549939e-12
5.503678e-11
-1.151418e-11
8.673453e-11
-2.05144e-11
1.350108e-10
-3.219589e-11
2.895323e-10
-5.862703e-11
5.746849e-10
-9.670523e-11
-1.926069e-10
1.032578e-09
2.282338e-11
-2.513663e-12
4.665863e-11
-8.255476e-12
7.212845e-11
-1.489767e-11
1.041087e-10
-2.633343e-11
1.476786e-10
-3.40465e-11
2.820711e-10
-4.990296e-11
-9.788073e-11
5.497771e-10
1.985351e-11
-1.702235e-12
4.066377e-11
-5.75618e-12
6.333194e-11
-1.195301e-11
8.254299e-11
-1.683577e-11
1.040808e-10
-2.367151e-11
1.467282e-10
-3.472454e-11
-4.692945e-11
2.593817e-10
1.698089e-11
-1.111954e-12
3.606302e-11
-4.061767e-12
5.347732e-11
-7.255446e-12
7.007299e-11
-1.135389e-11
8.767285e-11
-1.735571e-11
1.030203e-10
-2.212466e-11
-3.07307e-11
1.306998e-10
1.462794e-11
-7.445387e-13
3.048236e-11
-2.096907e-12
4.620556e-11
-4.01627e-12
6.175292e-11
-7.443011e-12
7.40758e-11
-1.027237e-11
8.590302e-11
-1.406925e-11
-2.492213e-11
1.058512e-10
1.246839e-11
-4.458957e-13
2.614798e-11
-8.196881e-13
3.987793e-11
-1.577592e-12
5.301304e-11
-3.51933e-12
6.466982e-11
-4.997346e-12
7.482481e-11
-7.548888e-12
-1.434641e-11
8.339408e-11
1.079069e-11
-2.358117e-13
2.266241e-11
-1.412627e-14
3.488236e-11
-5.735247e-14
4.611854e-11
-1.958207e-13
5.692498e-11
-9.76105e-13
6.99433e-11
-4.606651e-12
-2.358494e-12
7.427038e-11
9.416279e-12
-8.88361e-14
1.991379e-11
4.427387e-13
3.021805e-11
1.238545e-12
4.034433e-11
1.823272e-12
5.112245e-11
1.227662e-12
5.914691e-11
1.399253e-12
3.553987e-12
6.66648e-11
8.228748e-12
1.887884e-14
1.739489e-11
8.04809e-13
2.650634e-11
1.987372e-12
3.557913e-11
3.052407e-12
4.51178e-11
2.993657e-12
5.2593e-11
5.404563e-12
7.395052e-12
6.007835e-11
7.211573e-12
9.525888e-14
1.528493e-11
1.075956e-12
2.337162e-11
2.435572e-12
3.234617e-11
3.270485e-12
3.956754e-11
5.390899e-12
4.697446e-11
7.400175e-12
9.669838e-12
5.415724e-11
6.275477e-12
1.610072e-13
1.343061e-11
1.233145e-12
2.061853e-11
2.699468e-12
2.804399e-11
3.89085e-12
3.51295e-11
6.232969e-12
4.206334e-11
8.419319e-12
1.085834e-11
4.88055e-11
5.459834e-12
2.074926e-13
1.182767e-11
1.308914e-12
1.858933e-11
2.631164e-12
2.487308e-11
4.554428e-12
3.130418e-11
6.613523e-12
3.768623e-11
8.843964e-12
1.129987e-11
4.3964e-11
4.745424e-12
2.392117e-13
1.055455e-11
1.274222e-12
1.623505e-11
2.839846e-12
2.204064e-11
4.653078e-12
2.790714e-11
6.661378e-12
3.376613e-11
8.861253e-12
1.123538e-11
3.958557e-11
4.118727e-12
2.581726e-13
9.224588e-12
1.288425e-12
1.432521e-11
2.815273e-12
1.955984e-11
4.558981e-12
2.488224e-11
6.496407e-12
3.024514e-11
8.601652e-12
1.080902e-11
3.563609e-11
3.602811e-12
2.620377e-13
8.112983e-12
1.293511e-12
1.26572e-11
2.717043e-12
1.736043e-11
4.363893e-12
2.217893e-11
6.191942e-12
2.706964e-11
8.160385e-12
1.019953e-11
3.198644e-11
3.107684e-12
2.648725e-13
7.123337e-12
1.244606e-12
1.11796e-11
2.572125e-12
1.540256e-11
4.105916e-12
1.975883e-11
5.79947e-12
2.420834e-11
7.60467e-12
9.437319e-12
2.872807e-11
2.673601e-12
2.587259e-13
6.251174e-12
1.173777e-12
9.868541e-12
2.400276e-12
1.365741e-11
3.812113e-12
1.75893e-11
5.361799e-12
2.163258e-11
6.987596e-12
8.467538e-12
2.603362e-11
2.288018e-12
2.479867e-13
5.477145e-12
1.091475e-12
8.702175e-12
2.214819e-12
1.210025e-11
3.503129e-12
1.564807e-11
4.910303e-12
1.930657e-11
6.379295e-12
7.717896e-12
2.320859e-11
1.945036e-12
2.334383e-13
4.788333e-12
1.003217e-12
7.662138e-12
2.024778e-12
1.071009e-11
3.192379e-12
1.391405e-11
4.46326e-12
1.72425e-11
5.785578e-12
6.98411e-12
2.08159e-11
1.638883e-12
2.163188e-13
4.173132e-12
9.126333e-13
6.732779e-12
1.83617e-12
9.467236e-12
2.889183e-12
1.236245e-11
4.031538e-12
1.540707e-11
5.212615e-12
6.29942e-12
1.867602e-11
1.364599e-12
1.977359e-13
3.62166e-12
8.226161e-13
5.899476e-12
1.653713e-12
8.35239e-12
2.600687e-12
1.097357e-11
3.622034e-12
1.388516e-11
4.620739e-12
5.759226e-12
1.676325e-11
1.117158e-12
1.785004e-13
3.124578e-12
7.352016e-13
5.148913e-12
1.480068e-12
7.348422e-12
2.330118e-12
9.715648e-12
3.248104e-12
1.234339e-11
4.15331e-12
5.17415e-12
1.503312e-11
8.925683e-13
1.59126e-13
2.673402e-12
6.515029e-13
4.467861e-12
1.316623e-12
6.438542e-12
2.07768e-12
8.581658e-12
2.901479e-12
1.098568e-11
3.712677e-12
4.622302e-12
1.347061e-11
6.867895e-13
1.400691e-13
2.260217e-12
5.724166e-13
3.844671e-12
1.164154e-12
5.60622e-12
1.843077e-12
7.549825e-12
2.577524e-12
9.743781e-12
3.309778e-12
4.118343e-12
1.204439e-11
4.965294e-13
1.217608e-13
1.87818e-12
4.990031e-13
3.268274e-12
1.024361e-12
4.837368e-12
1.629298e-12
6.645148e-12
2.270398e-12
8.599921e-12
2.980875e-12
3.666301e-12
1.072836e-11
3.182699e-13
1.046244e-13
1.520065e-12
4.322166e-13
2.728012e-12
8.986921e-13
4.115188e-12
1.440481e-12
5.738063e-12
2.02445e-12
7.526401e-12
2.659419e-12
3.263758e-12
9.499401e-12
1.485423e-13
8.909416e-14
1.179015e-12
3.730935e-13
2.213903e-12
7.883017e-13
3.4302e-12
1.27488e-12
4.882901e-12
1.803706e-12
6.510955e-12
2.368804e-12
2.908897e-12
8.336646e-12
-1.598535e-14
7.573967e-14
8.484132e-13
3.232802e-13
1.715964e-12
6.958218e-13
2.767583e-12
1.136644e-12
4.05555e-12
1.619907e-12
5.532188e-12
2.123209e-12
2.605882e-12
7.218829e-12
-1.788619e-13
6.52829e-14
5.210894e-13
2.847508e-13
1.223127e-12
6.236043e-13
2.113434e-12
1.026493e-12
3.240327e-12
1.474461e-12
4.570882e-12
1.925834e-12
2.357988e-12
6.124577e-12
-3.440701e-13
5.859692e-14
1.888571e-13
2.607837e-13
7.224446e-13
5.788238e-13
1.451102e-12
9.68847e-13
2.417824e-12
1.373012e-12
3.605708e-12
1.783451e-12
2.170005e-12
5.031454e-12
-5.16799e-13
5.701228e-14
-1.585262e-13
2.557052e-13
2.005008e-13
5.67909e-13
7.709893e-13
9.570624e-13
1.566177e-12
1.33193e-12
2.613038e-12
1.704637e-12
2.047286e-12
3.915702e-12
-7.035054e-13
6.25932e-14
-5.340008e-13
2.758826e-13
-3.617975e-13
5.99338e-13
2.934645e-14
9.986805e-13
6.612916e-13
1.352802e-12
1.567237e-12
1.69584e-12
1.996186e-12
2.751158e-12
-9.130788e-13
7.865565e-14
-9.547114e-13
3.320016e-13
-9.890973e-13
6.898281e-13
-7.933976e-13
1.118496e-12
-3.300089e-13
1.458093e-12
4.359005e-13
1.771321e-12
2.024839e-12
1.508338e-12
-1.157704e-12
1.107795e-13
-1.445251e-12
4.408987e-13
-1.715903e-12
8.63867e-13
-1.735809e-12
1.343319e-12
-1.448832e-12
1.669812e-12
-8.194703e-13
1.946534e-12
2.14157e-12
1.534652e-13
-1.456883e-12
1.685396e-13
-2.042665e-12
6.311501e-13
-2.592051e-12
1.160469e-12
-2.853399e-12
1.712333e-12
-2.749187e-12
2.017178e-12
-2.246383e-12
2.239171e-12
2.35316e-12
-1.351822e-12
-1.841476e-12
2.698004e-13
-2.80455e-12
9.542025e-13
-3.692224e-12
1.643798e-12
-4.22503e-12
2.282917e-12
-4.302973e-12
2.537506e-12
-3.903139e-12
2.666739e-12
2.661344e-12
-3.050169e-12
-2.363088e-12
4.523144e-13
-3.825411e-12
1.505551e-12
-5.138138e-12
2.422983e-12
-5.964937e-12
3.128268e-12
-6.20533e-12
3.272306e-12
-5.859693e-12
3.239965e-12
3.05621e-12
-4.979442e-12
-3.114598e-12
8.049149e-13
-5.272318e-12
2.477464e-12
-7.216077e-12
3.782283e-12
-8.248705e-12
4.254314e-12
-8.580663e-12
4.249087e-12
-8.1865e-12
3.949314e-12
3.242454e-12
-6.951301e-12
-4.278646e-12
1.561622e-12
-7.425036e-12
4.240782e-12
-9.935053e-12
5.828326e-12
-1.128867e-11
5.954103e-12
-1.156776e-11
5.485575e-12
-1.060546e-11
4.343476e-12
3.574478e-12
-9.281221e-12
-6.239373e-12
3.407825e-12
-1.083235e-11
7.55608e-12
-1.402604e-11
9.013034e-12
-1.53945e-11
8.210346e-12
-1.482146e-11
6.314844e-12
-1.365476e-11
4.929844e-12
3.764471e-12
-1.184899e-11
-9.878991e-12
8.369701e-12
-1.652468e-11
1.382836e-11
-2.012949e-11
1.373998e-11
-2.023742e-11
1.005259e-11
-1.913074e-11
7.309737e-12
-1.70873e-11
5.188772e-12
3.646867e-12
-1.457595e-11
-1.733121e-11
2.650548e-11
-2.635771e-11
2.70149e-11
-2.827579e-11
1.863331e-11
-2.693345e-11
1.178492e-11
-2.407344e-11
7.47498e-12
-2.072156e-11
4.756609e-12
3.028938e-12
-1.727734e-11
-3.899864e-11
8.737894e-11
-4.465934e-11
5.180943e-11
-4.024557e-11
2.248579e-11
-3.471441e-11
1.088272e-11
-2.916457e-11
5.863355e-12
-2.413716e-11
3.242855e-12
1.765974e-12
-1.96485e-11
-1.181465e-10
-8.416472e-11
-5.552821e-11
-4.192488e-11
-3.331283e-11
-2.667404e-11
-2.129294e-11
-1.724864e-11
-1.910537e-12
-1.34057e-11
-1.751231e-12
-5.208749e-12
-1.634843e-12
-5.214795e-12
-4.633677e-12
-6.043634e-13
4.185425e-12
-3.841822e-12
-6.191611e-13
3.623561e-12
-3.511167e-12
-6.054971e-13
3.506832e-12
-3.720179e-12
-6.124764e-13
-1.692477e-11
-3.282318e-12
-1.316984e-11
-2.794819e-12
-5.148139e-12
-2.464915e-12
-5.077494e-12
7.850996e-13
-4.593455e-12
-9.525782e-13
7.909572e-13
4.144311e-12
-3.79439e-12
-9.640323e-13
7.428809e-13
3.573827e-12
-3.459101e-12
-8.787799e-13
7.414372e-13
3.450501e-12
-3.659284e-12
-8.68131e-13
-1.579068e-11
-4.338154e-12
-1.233224e-11
-3.66147e-12
-9.623875e-12
-3.199072e-12
-3.89775e-12
-1.491341e-12
1.132351e-12
1.116048e-12
-3.778677e-12
-1.387772e-12
1.13072e-12
-3.571078e-12
-1.286327e-12
1.011332e-12
3.352523e-12
-3.238324e-12
-1.139157e-12
9.926642e-13
3.226678e-12
-3.427781e-12
-1.114302e-12
-1.403464e-11
-5.003267e-12
-1.097573e-11
-4.288543e-12
-4.323689e-12
-3.7733e-12
-4.132962e-12
-3.875625e-12
-1.640776e-12
1.433095e-12
3.481668e-12
-3.162362e-12
-1.574217e-12
1.261522e-12
2.963569e-12
-2.858594e-12
-1.378159e-12
1.231494e-12
2.84845e-12
-3.043669e-12
-1.343658e-12
-1.190839e-11
-5.320132e-12
-9.283407e-12
-4.682028e-12
-3.653942e-12
-4.1872e-12
-3.414754e-12
1.751867e-12
-3.266536e-12
-1.859121e-12
1.710296e-12
2.904834e-12
-2.612005e-12
-1.834667e-12
1.488719e-12
2.435977e-12
-2.34487e-12
-1.592674e-12
1.449895e-12
2.342077e-12
-2.537019e-12
-1.550619e-12
-9.631585e-12
-5.386008e-12
-7.402384e-12
-4.890854e-12
-2.867314e-12
-4.473534e-12
-2.60022e-12
1.954457e-12
-2.537784e-12
-2.038367e-12
1.94694e-12
-1.954531e-12
-2.04748e-12
2.216579e-12
1.689849e-12
1.800118e-12
-1.721653e-12
-1.780447e-12
1.646781e-12
1.726206e-12
-1.939981e-12
-1.738356e-12
-7.362611e-12
-5.306934e-12
-5.451381e-12
-4.976288e-12
-2.016394e-12
-4.664543e-12
-1.735915e-12
-1.724887e-12
-2.185468e-12
2.111747e-12
2.130609e-12
1.269433e-12
-1.210627e-12
-2.052616e-12
1.864762e-12
1.081664e-12
-1.012066e-12
-1.942956e-12
1.824726e-12
1.017677e-12
-1.236797e-12
-1.905661e-12
-5.190491e-12
-5.254284e-12
-3.516343e-12
-4.998082e-12
-1.140813e-12
-4.7984e-12
-8.556397e-13
2.240544e-12
-8.985271e-13
-2.2897e-12
2.109464e-12
-4.33675e-13
-2.172309e-12
6.182129e-13
2.016012e-12
3.094164e-13
-2.44976e-13
-2.084981e-12
1.981767e-12
2.491182e-13
-4.666765e-13
-2.053935e-12
-3.157028e-12
-5.051876e-12
-1.642559e-12
-4.975893e-12
-2.667126e-13
-4.912943e-12
1.599417e-14
-4.947775e-14
-2.377216e-12
2.334632e-12
2.231815e-12
-2.080695e-13
3.773796e-13
-2.289039e-12
2.151013e-12
-4.929922e-13
5.54988e-13
-2.215196e-12
2.123103e-12
-5.540836e-13
3.431779e-13
-2.190273e-12
-1.169029e-12
-4.904657e-12
2.554986e-13
-4.945588e-12
5.907591e-13
-4.905234e-12
8.666881e-13
2.419146e-12
7.920185e-13
-2.461854e-12
2.34541e-12
-1.035509e-12
1.195582e-12
-2.402292e-12
2.278644e-12
-1.306881e-12
1.369212e-12
-2.342458e-12
2.256629e-12
-1.372803e-12
1.170723e-12
-2.323197e-12
6.575373e-13
-4.834805e-12
2.054919e-12
-4.968109e-12
1.51331e-12
-5.00936e-12
1.80431e-12
2.506791e-12
1.616516e-12
-2.464351e-12
2.460893e-12
-1.852597e-12
2.008934e-12
-2.522373e-12
2.407799e-12
-2.119636e-12
2.184812e-12
-2.475816e-12
2.391199e-12
-2.193895e-12
2.001409e-12
-2.461462e-12
2.34177e-12
-4.852004e-12
3.759263e-12
-5.059395e-12
2.369911e-12
-5.168049e-12
2.655472e-12
2.503905e-12
2.554275e-12
-2.549882e-12
2.587805e-12
-2.77565e-12
2.809703e-12
-2.533542e-12
2.547373e-12
-2.924347e-12
2.994313e-12
-2.623405e-12
2.535283e-12
-3.009636e-12
2.826781e-12
-2.613481e-12
3.914467e-12
-4.959242e-12
5.380809e-12
-5.228139e-12
3.199236e-12
-5.393788e-12
3.478961e-12
2.602476e-12
3.390477e-12
-2.663388e-12
2.596309e-12
-3.614357e-12
3.764329e-12
-2.666473e-12
2.704917e-12
-3.872309e-12
3.792985e-12
-2.636868e-12
2.696929e-12
-3.816576e-12
3.641724e-12
-2.786945e-12
5.407427e-12
-5.156074e-12
6.942508e-12
-5.479087e-12
4.006498e-12
-5.694362e-12
4.282984e-12
2.732116e-12
4.207753e-12
-2.81033e-12
2.743834e-12
-4.439298e-12
4.594683e-12
-2.829808e-12
2.719384e-12
-4.706608e-12
4.777461e-12
-2.809961e-12
2.884506e-12
-4.795778e-12
4.445139e-12
-2.809459e-12
6.852488e-12
-5.441631e-12
8.470241e-12
-5.814543e-12
4.801545e-12
-6.075625e-12
5.078729e-12
2.897447e-12
5.01444e-12
-2.994814e-12
2.924021e-12
-5.255596e-12
5.416849e-12
-3.028074e-12
2.908218e-12
-5.532692e-12
5.604884e-12
-3.015227e-12
2.909679e-12
-5.616903e-12
5.431027e-12
-3.017242e-12
8.279831e-12
-5.814589e-12
9.991597e-12
-6.236793e-12
5.596348e-12
-6.541557e-12
5.878674e-12
3.101701e-12
5.822276e-12
-3.220038e-12
3.141555e-12
-6.074788e-12
6.24242e-12
-3.26561e-12
3.130986e-12
-6.362646e-12
6.436687e-12
-3.256964e-12
3.133092e-12
-6.446633e-12
6.241181e-12
-3.25953e-12
9.719527e-12
-6.275111e-12
1.153481e-11
-6.748035e-12
6.404642e-12
-7.097687e-12
6.697645e-12
3.348088e-12
6.643847e-12
-3.487051e-12
3.400558e-12
-6.897766e-12
7.085607e-12
-3.553696e-12
3.392776e-12
-7.210978e-12
7.287744e-12
-3.539808e-12
3.395869e-12
-7.295874e-12
7.070522e-12
-3.543149e-12
1.119954e-11
-6.824062e-12
1.312823e-11
-7.351397e-12
7.241567e-12
-7.747763e-12
7.549069e-12
3.634703e-12
7.500092e-12
-3.80019e-12
3.803012e-12
-7.751933e-12
7.963208e-12
-3.982261e-12
3.698197e-12
-8.091308e-12
8.171513e-12
-3.869309e-12
3.701397e-12
-8.17724e-12
7.923576e-12
-3.872663e-12
1.274847e-11
-7.464512e-12
1.479933e-11
-8.050005e-12
8.118598e-12
-8.495003e-12
8.445783e-12
3.975567e-12
8.393486e-12
-4.164123e-12
4.166661e-12
-8.663236e-12
8.884753e-12
-4.365245e-12
4.052277e-12
-9.018889e-12
9.102738e-12
-4.247891e-12
4.055471e-12
-9.106595e-12
8.819611e-12
-4.251549e-12
1.439399e-11
-8.202885e-12
1.657697e-11
-8.849832e-12
9.051228e-12
-9.344988e-12
9.402642e-12
4.364302e-12
9.342894e-12
-4.578401e-12
4.577444e-12
-9.629497e-12
9.865325e-12
-4.804943e-12
4.45611e-12
-1.000728e-11
1.009585e-11
-4.678007e-12
4.460042e-12
-1.00971e-11
9.769969e-12
-4.682741e-12
1.616617e-11
-9.047708e-12
1.849174e-11
-9.759312e-12
1.005374e-11
-1.030384e-11
1.043459e-11
4.804727e-12
1.036298e-11
-5.046011e-12
5.046259e-12
-1.066742e-11
1.091872e-11
-5.303527e-12
4.912805e-12
-1.106939e-11
1.116364e-11
-5.162077e-12
4.918617e-12
-1.116286e-11
1.078652e-11
-5.169344e-12
1.809857e-11
-1.001172e-11
2.057704e-11
-1.078987e-11
1.114203e-11
-1.137801e-11
1.155875e-11
5.299916e-12
1.14679e-11
-5.568746e-12
5.575104e-12
-1.179109e-11
1.205857e-11
-5.864292e-12
5.424091e-12
-1.221797e-11
1.231741e-11
-5.700875e-12
5.433273e-12
-1.231422e-11
1.188496e-11
-5.711052e-12
2.022695e-11
-1.110933e-11
2.286748e-11
-1.196089e-11
1.233332e-11
-1.259291e-11
1.279352e-11
5.849605e-12
1.267694e-11
-6.136852e-12
6.168796e-12
-1.30179e-11
1.328649e-11
-6.475536e-12
5.990934e-12
-1.346664e-11
1.356964e-11
-6.295916e-12
6.00207e-12
-1.356103e-11
1.307083e-11
-6.307445e-12
2.25952e-11
-1.237753e-11
2.540996e-11
-1.329802e-11
2.773627e-11
-1.398722e-11
1.446891e-11
-7.202939e-12
6.55695e-12
6.462138e-12
1.499485e-11
-7.225246e-12
6.692612e-12
1.455013e-11
-6.942168e-12
6.62871e-12
-1.4828e-11
1.493102e-11
-6.978567e-12
6.624574e-12
-1.491137e-11
1.434946e-11
-6.958375e-12
2.525613e-11
-1.382483e-11
2.830074e-11
-1.482073e-11
1.515535e-11
-1.556034e-11
1.57288e-11
1.552584e-11
-7.57628e-12
7.297419e-12
-1.590274e-11
1.616858e-11
-7.679529e-12
7.334113e-12
-1.635857e-11
1.643204e-11
-7.710038e-12
7.308528e-12
-1.639417e-11
1.573195e-11
-7.681449e-12
2.824565e-11
-1.548242e-11
3.153465e-11
-1.655363e-11
1.681939e-11
-1.732295e-11
1.746946e-11
7.966115e-12
1.720283e-11
-8.391763e-12
8.084318e-12
-1.759984e-11
1.787102e-11
-8.511452e-12
8.106703e-12
-1.805481e-11
1.812054e-11
-8.525161e-12
8.075511e-12
-1.806599e-11
1.728051e-11
-8.49082e-12
3.162306e-11
-1.738259e-11
3.519323e-11
-1.854569e-11
1.870173e-11
-1.933395e-11
1.943959e-11
8.842492e-12
1.909352e-11
-9.325746e-12
8.958069e-12
-1.950218e-11
1.976853e-11
-9.431232e-12
8.962272e-12
-1.991307e-11
1.998822e-11
-9.442173e-12
8.925162e-12
-1.991509e-11
1.899158e-11
-9.380487e-12
3.548311e-11
-1.959598e-11
3.938658e-11
-1.037643e-11
-1.052585e-11
2.084833e-11
-1.079251e-11
2.169143e-11
-1.085592e-11
9.836219e-12
2.123733e-11
-1.038307e-11
9.926053e-12
-2.164956e-11
2.190436e-11
-1.045556e-11
1.011018e-11
-2.187245e-11
2.205128e-11
-1.079718e-11
9.860976e-12
-2.196256e-11