/*--------------------------------*- C++ -*----------------------------------*\
| =========                 |                                                 |
| \\      /  F ield         | OpenFOAM: The Open Source CFD Toolbox           |
|  \\    /   O peration     | Version:  2206                                  |
|   \\  /    A nd           | Website:  www.openfoam.com                      |
|    \\/     M anipulation  |                                                 |
\*---------------------------------------------------------------------------*/
FoamFile
{
    version     2.0;
    format      ascii;
    arch        "LSB;label=32;scalar=64";
    class       volScalarField;
    location    "2.4";
    object      pS;
}
// * * * * * * * * * * * * * * * * * * * * * * * * * * * * * * * * * * * * * //

dimensions      [1 -1 -2 0 0 0 0];

internalField   nonuniform List<scalar> 
13078
(
0.5175165
45.45828
571.0011
666.1112
631.9154
575.0022
514.5555
85.45119
534.6517
717.1823
689.7803
635.9675
577.28
516.1897
747.0185
796.9128
763.2189
703.8506
642.6219
581.1709
518.7465
945.5329
853.1567
781.3216
714.5918
649.456
585.4689
521.6795
970.0021
869.576
791.9571
721.5736
655.2946
589.6343
524.6299
964.2277
872.4798
797.0986
726.2813
658.7254
593.1233
527.4206
956.8434
871.6104
799.2078
729.0621
661.1734
594.9782
529.7902
951.3472
869.5708
799.8318
730.4201
662.5763
596.3048
530.8745
947.381
867.5412
799.3905
730.7934
663.3063
597.1425
531.6805
944.4982
865.7867
798.6608
730.7688
663.6388
597.652
532.2289
942.3276
864.332
797.9035
730.5421
663.7367
597.9479
532.6174
940.5863
863.1594
797.1864
730.2209
663.7023
598.1107
532.887
939.1745
862.1546
796.5252
729.8779
663.5968
598.1879
533.0826
937.9649
861.2865
795.9241
729.5462
663.4764
598.2189
533.2357
936.9012
860.5151
795.4002
729.6241
663.831
598.2841
533.3635
935.9218
859.808
794.9223
729.7704
664.0223
598.3148
533.4852
934.9799
859.1126
794.4211
729.5124
663.9094
598.3167
533.6013
934.0425
858.4375
793.9313
729.226
663.7828
598.3199
533.7201
933.087
857.7494
793.4407
728.9288
663.6638
598.356
533.8334
932.0896
857.046
792.9451
728.6744
664.0843
599.0355
534.0321
931.0342
856.2868
792.4144
728.4012
664.5591
599.4937
534.2277
929.8738
855.4665
791.8232
728.0421
664.5012
599.5627
534.3832
928.6067
854.5703
791.1867
727.6702
664.3597
599.6421
534.617
927.1949
853.5624
790.4767
727.2597
664.2745
600.3896
535.6565
925.6047
852.4357
789.6732
726.7971
664.1496
601.2128
536.4149
923.8124
851.1593
788.7767
726.2684
663.9408
601.4205
536.759
921.7556
849.7
787.75
725.6626
663.7006
601.5155
537.147
919.435
848.0543
786.5847
724.9646
663.4271
601.6521
538.3753
916.7748
846.1564
785.2598
724.1609
663.0819
601.7224
539.6748
914.0394
844.2723
783.8372
723.2488
662.6316
601.6496
540.1634
910.839
842.0434
782.2004
722.2123
662.0822
601.4915
540.4166
907.2621
840.0009
781.029
721.168
661.4099
601.1792
540.4324
903.4672
837.8182
780.0531
720.9039
660.9385
600.9205
540.3219
899.7232
835.7256
779.3921
720.5742
661.0468
601.4545
540.8789
896.502
834.8734
780.3238
723.7647
665.2961
604.9986
543.653
895.1629
837.0951
786.0394
733.0852
676.4645
615.3143
550.7274
897.4129
846.5872
801.8158
752.3413
696.6096
629.7875
558.587
906.9444
868.8827
830.3227
780.4049
720.9987
646.8453
563.2622
929.0398
904.1279
867.4094
812.9581
745.0554
664.4342
562.8071
968.1221
948.4855
907.3969
846.3032
768.6831
678.5197
567.3981
1022.512
995.4454
951.9796
878.4089
793.7573
695.801
583.0817
1091.384
1039.458
994.3847
917.2099
820.8803
717.2073
607.6747
1167.811
1081.026
1030.398
953.9963
858.9493
741.1073
647.844
1244.78
1106.826
1063.779
980.1438
880.6461
776.1888
687.8801
1297.396
1120.38
1078.685
985.6321
884.9108
812.8737
746.2818
1315.81
1123.989
1076.511
970.2631
888.2718
831.9607
784.9003
1314.864
1120.511
1050.518
953.7492
889.9632
840.8547
782.4864
1317.422
1115.6
1036.21
946.1794
900.6331
846.0006
770.6297
1315.889
1110.088
1036.08
947.1463
901.9029
842.4865
754.4689
1307.566
1109.711
1039.565
952.4002
905.0655
825.2726
723.3685
1289.538
1119.3
1052.498
951.6729
893.1071
790.9652
672.4123
1252.918
1114.552
1060.365
961.5761
883.0272
754.5063
620.0705
1204.299
1091.694
1025.87
935.1314
842.4523
705.5696
566.3222
1156.241
1061.411
993.3479
893.545
787.2617
644.2657
526.3399
1111.297
1029.07
956.5642
850.952
738.231
601.9002
492.8472
1066.51
992.9055
917.8608
813.3285
703.6238
576.4136
469.588
1031.916
949.3882
874.3432
778.1339
680.5239
562.5055
460.2491
1018.595
920.4774
848.5242
761.9859
676.4575
563.4355
464.4286
1008.939
896.0735
827.5018
749.2646
674.7124
567.3574
471.2812
1003.25
872.4454
804.6854
733.57
668.4703
572.4868
472.815
1007.601
857.8443
790.236
709.6859
652.9647
563.3491
465.375
1018.928
851.6692
781.2396
696.142
644.4343
561.0034
464.9374
1028.703
851.8716
770.0718
681.9711
632.4808
561.6028
462.9553
1036.044
863.5552
777.1695
679.117
624.8209
563.0948
467.7734
1046.372
890.3997
799.9219
689.8786
620.0757
565.5801
479.4017
1065.394
919.9879
834.8047
711.8558
612.1424
549.0607
485.4937
1085.848
944.0561
867.4992
738.9933
616.0015
536.6468
485.0958
1085.077
955.1578
878.7672
765.5051
634.5784
528.4031
466.7823
1055.589
956.0825
879.814
780.3344
659.0223
534.1892
444.818
1012.386
945.3357
873.7843
779.1848
673.2247
553.0838
442.9638
969.9308
924.7183
862.8486
776.2821
678.5261
572.8971
460.5746
933.8811
901.1803
848.5314
773.0288
685.2452
588.7521
489.6
908.4245
875.141
829.1378
766.717
691.054
607.1628
508.1098
894.049
852.0064
808.4626
753.3873
689.3682
616.7028
528.865
889.1115
836.8066
790.0196
738.0064
680.535
614.1481
540.9313
889.2998
830.5846
778.7958
725.3919
668.4975
606.5838
541.9078
892.0464
829.9096
775.0509
719.1415
660.6352
600.43
539.0367
896.2941
831.8333
775.4551
717.4096
658.0722
597.818
537.4663
900.6975
834.7628
777.1976
717.6427
657.7029
597.9614
537.6907
904.9443
837.781
779.0165
719.1835
658.9514
598.8681
538.4072
908.9522
840.3846
780.5377
720.144
660.0991
599.7539
538.9779
912.5078
842.6793
782.0745
721.5893
661.1479
600.3903
539.2323
915.5569
844.9595
783.9192
722.8897
661.9869
600.8212
539.2322
918.1274
846.8565
785.4557
723.9828
662.641
601.1155
539.0039
920.605
848.7148
786.8399
724.9151
663.1453
601.2249
537.8582
922.7662
850.3029
788.0297
725.6817
663.5396
601.2293
536.804
924.6698
851.7019
789.06
726.3299
663.8588
601.2364
536.5228
926.3206
852.9012
789.9363
726.8836
664.119
601.1124
536.2665
927.7972
853.9565
790.7055
727.3695
664.2776
600.3018
535.5303
929.0997
854.9037
791.3911
727.777
664.3885
599.6205
534.5501
930.272
855.7379
791.9988
728.1392
664.5427
599.5559
534.3513
931.3336
856.5009
792.5577
728.4776
664.5997
599.5056
534.2146
932.3069
857.2002
793.0436
728.7235
664.0864
599.0219
534.0235
933.2176
857.8449
793.4977
728.9482
663.6727
598.354
533.8284
934.0806
858.4622
793.9329
729.2216
663.7809
598.3143
533.725
934.9176
859.0594
794.3707
729.4773
663.8962
598.319
533.6209
935.7547
859.6682
794.8161
729.7072
664.0022
598.3221
533.5127
936.6009
860.2749
795.2267
729.5072
663.7788
598.2914
533.4007
937.4938
860.9257
795.6709
729.4112
663.4283
598.2348
533.2946
938.4914
861.6481
796.1881
729.7147
663.5546
598.2305
533.1762
939.6217
862.489
796.7652
730.0426
663.6883
598.2071
533.0412
940.9866
863.4548
797.3995
730.3705
663.788
598.1355
532.8599
942.6645
864.6036
798.0952
730.6734
663.8213
597.9845
532.6008
944.7782
866.0165
798.8344
730.8946
663.7329
597.7021
532.2315
947.5837
867.7508
799.5213
730.9385
663.4224
597.2015
531.6725
951.4574
869.7523
799.65
730.3753
662.6851
596.3591
530.8904
956.8725
871.7825
799.193
729.0007
661.2465
595.1076
528.8761
964.1448
872.8004
797.4559
726.5307
659.0815
592.3165
526.4295
970.2946
870.1566
792.4682
722.3377
654.6679
588.7783
523.7064
947.7123
854.4868
783.1137
714.2775
648.8491
584.7389
520.7583
769.6451
804.6753
763.2917
703.733
642.2664
580.4648
517.8048
106.9813
591.0097
734.2061
690.8287
635.1353
576.2261
515.0267
451.6402
384.5389
311.7744
256.6205
183.4004
110.7428
37.72557
453.0739
385.9934
313.1963
257.9512
184.5196
111.6261
39.35674
455.0007
387.6772
314.886
241.3831
185.6035
112.4817
40.23526
457.1604
389.4552
316.3278
261.0417
186.7407
113.3549
41.04614
459.3733
391.3211
317.9984
262.6485
187.9147
114.2368
41.61667
461.5405
393.2102
319.7024
264.2345
189.0811
115.1191
42.15318
463.5969
395.0497
321.382
265.7443
189.4385
116.0055
42.6693
465.3817
396.8291
323.024
267.2228
189.7748
116.8915
43.14324
466.0823
398.4175
324.5798
268.7037
190.7314
117.6949
43.6143
466.6206
398.9554
326.0013
270.1722
191.667
118.5042
44.06155
467.0263
399.3717
326.444
271.5779
192.6039
119.3197
44.49232
467.3547
399.7332
326.792
271.9127
193.5487
120.1444
44.91046
467.6223
400.0566
327.1276
272.2203
193.7295
120.9979
45.31176
467.8586
400.3592
327.459
272.5364
193.9328
121.1668
45.63083
468.0772
400.6618
327.7948
272.8595
194.1513
121.3744
45.46846
468.2943
400.9666
328.1366
273.1985
194.3904
121.6019
45.25233
468.5079
401.2786
328.4883
273.5673
194.7682
121.8429
45.08966
468.7272
401.5925
328.8659
274.0986
197.4742
122.1074
44.86057
468.9539
401.9087
329.2565
274.5129
197.9722
122.3816
44.66189
469.2003
402.2466
329.6707
274.9518
198.3482
122.675
44.43811
469.4578
402.6038
330.1008
275.4188
198.7447
122.9851
44.13616
469.741
402.9833
330.5417
275.9202
199.1655
123.3133
43.89576
470.0358
403.4007
331.0339
276.3715
199.7256
123.658
43.64708
470.4639
403.8635
331.6561
258.5743
202.7152
124.1902
43.41011
470.8951
404.3351
332.1532
277.4499
204.1048
124.637
43.18668
471.3093
404.861
332.7793
278.2982
204.7707
125.0697
42.96131
471.9102
405.5258
333.5344
279.1016
205.4656
125.5755
42.71698
473.5149
406.3193
334.252
279.9287
206.3937
129.0839
42.51181
474.47
424.5944
352.9638
280.3244
207.314
130.531
42.38067
475.2329
425.3925
354.0846
281.3631
208.2655
131.1893
42.28514
477.3653
427.6429
355.0458
282.4433
209.3045
133.9783
42.32248
478.4393
429.5355
355.9618
283.5944
210.3429
137.0277
42.60552
478.5922
432.7925
357.0478
284.5717
211.2693
137.911
43.5615
478.6967
433.4708
358.4847
284.8358
211.6754
139.3372
52.187
479.5416
433.5329
359.0317
283.4615
210.4744
142.394
59.71436
480.4119
432.9409
358.027
276.5934
205.4447
148.115
89.84823
477.0985
426.5187
342.8464
259.7401
196.1803
147.4969
94.89462
466.3961
409.4602
321.5283
249.0255
183.3507
126.8109
94.05032
451.4581
387.1458
301.5082
233.9502
161.2263
114.1857
88.93056
446.329
370.0127
290.135
217.735
157.655
114.1706
81.42405
457.9762
372.8073
300.4215
209.5701
152.5525
111.4885
63.72582
508.5598
410.7907
304.7263
197.0889
142.719
108.1586
61.29571
559.7742
446.7859
308.7239
190.2821
137.318
106.6447
56.86149
610.0543
473.3642
310.7899
187.9432
141.6461
104.3041
65.67008
646.455
526.175
336.9156
192.483
138.8648
109.9975
71.67505
689.405
568.9376
365.6755
198.2268
140.2612
119.9954
70.08446
701.5515
586.4622
362.2024
208.4099
156.1061
117.9347
84.37464
672.046
565.6114
361.0367
214.8573
155.0099
137.147
134.6057
631.6667
538.4122
338.6315
198.458
151.0343
135.3194
152.7264
591.7535
494.5061
300.8249
186.6912
140.0894
141.4868
130.2598
544.726
480.1586
265.6544
171.8303
148.2427
134.957
106.3257
494.6763
436.3139
244.0998
168.8152
153.0527
136.9079
104.1854
446.4827
386.793
221.2311
182.5465
168.9684
145.0775
116.5131
401.0679
328.6853
191.7181
172.935
168.2903
157.123
129.6383
362.4093
278.6434
164.0635
155.9433
154.0737
148.187
149.6331
342.9436
245.8271
155.9754
142.4333
141.1722
178.0201
335.0661
228.4365
151.2899
142.813
139.1149
168.7273
337.7142
229.4745
158.3004
161.2298
142.5794
153.0476
348.1432
251.9519
178.6147
167.7884
155.2218
159.0621
173.7863
360.3012
275.3688
171.7524
153.3232
150.4319
136.6791
141.763
348.9055
266.4084
161.3855
136.4432
142.7591
135.5619
158.0701
350.9322
261.0906
167.9068
140.3325
154.9221
155.333
157.6009
345.3651
250.6422
166.7262
159.5371
160.2451
153.3033
123.1705
349.8108
258.5703
170.428
164.8613
159.0519
151.0769
139.9259
361.9134
274.8512
168.9853
147.9322
149.0192
171.9863
135.03
378.2627
289.5375
176.1917
136.6199
139.0741
163.6841
108.6146
388.7115
310.3819
182.3822
137.0584
134.9271
130.7867
94.34394
385.3385
311.1192
187.2891
141.0173
132.5305
114.143
76.24164
372.4019
314.0896
197.5992
141.9349
135.3277
105.5123
54.71688
352.0148
306.6762
214.6266
149.5955
128.1543
106.439
52.09013
347.0757
288.7179
233.0806
155.5527
129.4751
111.0187
63.80715
367.0486
284.0756
237.9345
169.3248
133.7782
120.2472
76.2224
402.0911
316.1154
254.3329
186.4409
146.4941
119.7932
81.59928
436.8842
354.4885
293.2214
222.9765
157.031
118.5192
91.97137
461.9708
392.1139
327.0386
259.8437
188.0044
134.7503
101.6679
472.728
415.939
349.7995
272.9444
205.0919
148.6582
83.59142
475.3212
424.7452
359.6845
282.1967
210.4814
147.5948
72.0828
475.7953
427.2191
360.7718
284.2815
212.1003
141.4259
53.91646
476.3728
428.2761
358.2582
284.2814
211.9497
139.2344
48.39479
476.9656
428.8255
356.2326
283.7316
211.1357
138.2559
45.3309
477.0781
427.0084
355.2228
282.8684
210.1238
137.206
41.63043
476.179
425.2421
354.3666
281.9596
209.1149
135.908
41.69357
474.3122
423.1199
353.6652
281.0989
208.1875
131.5877
41.88458
473.7928
422.4499
352.903
280.3335
207.3546
130.6565
42.11752
472.9865
405.8476
333.852
278.8356
206.5676
130.0469
42.35562
471.5438
405.1942
333.2505
278.2869
205.7062
126.8396
42.61854
471.0525
404.6271
332.6068
277.6872
204.9789
125.2592
42.92035
470.7178
404.1678
332.0425
277.1227
204.3457
124.8333
43.19211
470.3358
403.7311
331.5077
276.5883
203.6634
124.4396
43.48582
469.9546
403.3276
331.0129
276.0704
200.6019
123.928
43.74196
469.6963
402.9504
330.5432
275.5813
199.3829
123.5227
44.01387
469.4412
402.5872
330.1004
275.1282
198.9717
123.1991
44.29421
469.194
402.247
329.683
274.6924
198.576
122.8895
44.5536
468.9554
401.9257
329.2827
274.2809
198.2033
122.5934
44.80953
468.7429
401.6208
328.9088
273.8856
197.8535
122.3153
45.03336
468.5339
401.3175
328.5438
273.432
196.3249
122.0483
45.23574
468.3332
401.019
328.1993
273.0044
194.5817
121.7967
45.43403
468.1361
400.7353
327.873
272.657
194.3403
121.5607
45.65169
467.9438
400.4577
327.5567
272.3151
194.114
121.34
45.6623
467.7431
400.184
327.2441
271.9875
193.9078
121.1373
45.62816
467.5268
399.8998
326.9368
271.6606
193.7075
120.6292
45.20537
467.2726
399.5905
326.6216
271.3288
193.1606
119.7953
44.76269
466.9659
399.2423
326.2151
270.4599
192.2293
118.9703
44.30127
466.5584
398.7858
324.8407
268.9892
191.298
118.1539
43.83799
466.0124
397.2978
323.344
267.5076
190.3676
117.3413
43.35004
464.4153
395.6221
321.7559
266.0025
189.4672
116.4943
42.85347
462.5464
393.875
320.1209
264.5572
189.7134
115.6011
42.34595
460.5295
392.0423
318.4488
263.0352
188.5885
114.7107
41.81513
458.3682
390.1506
316.7567
261.5311
187.4214
113.8249
41.24588
456.1108
388.248
315.0722
260.0505
186.2575
112.9406
40.56765
453.9083
386.4139
313.4295
258.6313
185.1018
112.0596
39.68174
451.8361
384.6205
311.8225
257.2759
183.9603
111.1768
38.35936
0
0
0
0
0
0
0
0
0
0
0
0
0
0
0
0
0
0
0
0
0
0
0
0
0
0
0
0
0
0
0
0
0
0
0
0
0
0
0
0
0
0
0
0
0
0
0
0
0
0
0
0
0
0
0
0
0
0
0
0
0
0
0
0
0
0
0
0
0
0
0
0
0
0
0
0
0
0
0
0
0
0
0
0
0
0
0
0
0
0
0
0
0
0
0
0
0
0
0
0
0
0
0
0
0
0
0
0
0
0
0
0
0
0
0
0
0
0
0
0
0
0
0
0
0
0
0
0
0
0
0
0
0
0
0
0
0
0
0
0
0
0
0
0
0
0
0
0
0
0
0
0
0
0
0
0
0
0
0
0
0
0
0
0
0
0
0
0
0
0
0
0
0
0
0
0
0
0
0
0
0
0
0
0
0
0
0
0
0
0
0
0
0
0
0
0
0
0
0
0
0
0
0
0
0
0
0
0
0
0
0
0
0
0
0
0
0
0
0
0
0
0
0
0
0
0
0
0
0
0
0
0
0
0
0
0
0
0
0
0
0
0
0
0
0
0
0
0
0
0
0
0
0
0
0
0
0
0
0
0
0
0
0
0
0
0
0
0
0
0
0
0
0
0
0
0
0
0
0
0
0
0
0
0
0
0
0
0
0
0
0
0
0
0
0
0
0
0
0
0
0
0
0
0
0
0
0
0
0
0
0
0
0
0
0
0
0
0
0
0
0
0
0
0
0
0
0
0
0
0
0
0
0
0
0
0
0
0
0
0
0
0
0
0
0
0
0
0
0
0
0
0
0
0
0
0
0
0
0
0
0
0
0
0
0
0
0
0
0
0
0
0
0
0
0
0
0
0
0
0
0
0
0
0
0
0
0
0
0
0
0
0
0
0
0
0
0
0
0
0
0
0
0
0
0
0
0
0
0
0
0
0
0
0
0
0
0
0
0
0
0
0
0
0
0
0
0
0
0
0
0
0
0
0
0
0
0
0
0
0
0
0
0
0
0
0
0
0
0
0
0
0
0
0
0
0
0
0
0
0
0
0
0
0
0
0
0
0
0
0
0
0
0
0
0
0
0
0
0
0
0
0
0
0
0
0
0
0
0
0
0
0
0
0
0
0
0
0
0
0
0
0
0
0
0
0
0
0
0
0
0
0
0
0
0
0
0
0
0
0
0
0
0
0
0
0
0
0
0
0
0
0
0
0
0
0
0
0
0
0
0
0
0
0
0
0
0
0
0
0
0
0
0
0
0
0
0
0
0
0
0
0
0
0
0
0
0
0
0
0
0
0
0
0
0
0
0
0
0
0
0
0
0
0
0
0
0
0
0
0
0
0
0
0
0
0
0
0
0
0
0
0
0
0
0
0
0
0
0
0
0
0
0
0
0
0
0
0
0
0
0
0
0
0
0
0
0
0
0
0
0
0
0
0
0
0
0
0
0
0
0
0
0
0
0
0
0
0
0
0
0
0
0
0
0
0
0
0
0
0
0
0
0
0
0
0
0
0
0
0
0
0
0
0
0
0
0
0
0
0
0
0
0
0
0
0
0
0
0
0
0
0
0
0
0
0
0
0
0
0
0
0
0.114158
0
0
0
0
0
0
0
0
0
0
0
0
0
0
0
0
0
3.968459
0
0
0
0
0
0
0
0
0
0
0
0
0
0
0
0
0
5.854016
0
0
0
0
0
0
0
0
0
0
0
0
0
0
0
0
0
6.55188
0
0
0
0
0
0
0
0
0
0
0
0
0
0
0
0
0
8.243032
0
0
0
0
0
0
0
0
0
0
0
0
0
0
0
0
0
9.705857
0
0
0
0
0
0
0
0
0
0
0
0
0
0
0
0
0
10.12144
0
0
0
0
0
0
0
0
0
0
0
0
0
0
0
0
0
17.59762
0
0
0
0
0
0
0
0
0
0
0
0
0
0
0
0
0
27.63243
0
0
0
0
0
0
0
0
0
0
0
0
0
0
0
0
0
54.81375
0
0
0
0
0
0
0
0
0
0
0
0
0
0
0
0
0
101.2381
0
0
0
0
0
0
0
0
0
0
0
0
0
92.70141
2.509343
0
0
0
0
0
0
0
0
62.56827
0
0
0
0
0
0
0
0
0
0
0
0
0
0
0
0
0
0
0
0
0
0
0
0
0
0
0
0
0
0
0
0
0
0
0
0
0
0
0
0
0
0
0
0
0
0
0
0
0
69.74302
0
0
0
0
0
0
62.35581
6.579073
0
0
0
0
0
0
0
60.31329
0
0
0
0
0
0
0
0
0
0
0
47.31965
0
0
0
0
0
0
0
0
0
0
0
0
0
0
0
0
0
28.04408
0
0
0
0
0
0
0
0
0
0
0
0
0
0
0
0
0
23.74813
0
0
0
0
0
0
0
0
0
0
0
0
0
0
0
0
0
17.14513
0
0
0
0
0
0
0
0
0
0
0
0
0
0
0
0
0
9.492544
0
0
0
0
0
0
0
0
0
0
0
0
0
0
0
0
0
9.003883
0
0
0
0
0
0
0
0
0
0
0
0
0
0
0
0
0
9.056613
0
0
0
0
0
0
0
0
0
0
0
0
0
0
0
0
0
5.690121
0
0
0
0
0
0
0
0
0
0
0
0
0
0
0
0
0
4.095947
0
0
0
0
0
0
0
0
0
0
0
0
0
0
0
0
0
0.5871773
0
0
0
0
0
0
0
0
0
0
0
0
0
0
0
0
0
0
0
0
0
0
0
0
0
0
0
0
0
0
0
0
0
0
0
0
0
0
0
0
0
0
0
0
0
0
0
0
0
0
0
0
0
0
0
0
0
0
0
0
0
0
0
0
0
0
0
0
0
0
0
0
0
0
0
0
0
0
0
0
0
0
0
0
0
0
0
0
0
0
0
0
0
0
0
0
0
0
0
0
0
0
0
0
0
0
0
0
0
0
0
0
0
0
0
0
0
0
0
0
0
0
0
0
0
0
0
0
0
0
0
0
0
0
0
0
0
0
0
0
0
0
0
0
0
0
0
0
0
0
0
0
0
0
0
0
0
0
0
0
0
0
0
0
0
0
0
0
0
0
0
0
0
0
0
0
0
0
0
0
0
0
0
0
0
0
0
0
0
0
0
0
0
0
0
0
0
0
0
0
0
0
0
0
0
0
0
0
0
0
0
0
0
0
0
0
0
0
0
0
0
0
0
0
0
0
0
0
0
0
0
0
0
0
0
0
0
0
0
0
0
0
0
0
0
0
0
0
0
0
0
0
0
0
0
0
0
0
0
0
0
0
0
0
0
0
0
0
0
0
0
0
0
0
0
0
0
0
0
0
0
0
0
0
0
0
0
0
0
0
0
0
0
0
0
0
0
0
0
0
0
0
0
0
0
0
0
0
0
0
0
0
0
0
0
0
0
0
0
0
0
0
0
0
0
0
0
0
0
0
0
0
0
0
0
0
0
0
0
0
0
0
0
0
0
0
0
0
0
0
0
0
0
0
0
0
0
0
0
0
0
0
0
0
0
0
0
0
0
0
0
0
0
0
0
0
0
0
0
0
0
0
0
0
0
0
0
0
0
0
0
0
0
0
0
0
0
0
0
0
0
0
0
0
0
0
0
0
0
0
0
0
0
0
0
0
0
0
0
0
0
0
0
0
0
0
0
0
0
0
0
0
0
0
0
0
0
0
0
0
0
0
0
0
0
0
0
0
0
0
0
0
0
0
0
0
0
0
0
0
0
0
0
0
0
0
0
0
0
0
0
0
0
0
0
0
0
0
0
0
0
0
0
0
0
0
0
0
0
0
0
0
0
0
0
0
0
0
0
0
0
0
0
0
0
0
0
0
0
0
0
0
0
0
0
0
0
0
0
0
0
0
0
0
0
0
0
0
0
0
0
0
0
0
0
0
0
0
0
0
0
0
0
0
0
0
0
0
0
0
0
0
0
0
0
0
0
0
0
0
0
0
0
0
0
0
0
0
0
0
0
0
0
0
0
0
0
0
0
0
0
0
0
0
0
0
0
0
0
0
0
0
0
0
0
0
0
0
0
0
0
0
0
0
0
0
0
0
0
0
0
0
0
0
0
0
0
0
0
0
0
0
0
0
0
0
0
0
0
0
0
0
0
0
0
0
0
0
0
0
0
0
0
0
0
0
0
0
0
0
0
0
0
0
0
0
0
0
0
0
0
0
0
0
0
0
0
0
0
0
0
0
0
0
0
0
0
0
0
0
0
0
0
0
0
0
0
0
0
0
0
0
0
0
0
0
0
0
0
0
0
0
0
0
0
0
0
0
0
0
0
0
0
0
0
0
0
0
0
0
0
0
0
0
0
0
0
0
0
0
0
0
0
0
0
0
0
0
0
0
0
0
0
0
0
0
0
0
0
0
0
0
0
0
0
0
0
0
0
0
0
0
0
0
0
0
0
0
0
0
0
0
0
0
0
0
0
0
0
0
0
0
0
0
0
0
0
0
0
0
0
0
0
0
0
0
0
0
0
0
0
0
0
0
0
0
0
0
0
0
0
0
0
0
0
0
0
0
0
0
0
0
0
0
0
0
0
0
0
0
0
0
0
0
0
0
0
0
0
0
0
0
0
0
0
0
0
0
0
0
0
0
0
0
0
0
0
0
0
0
0
0
0
0
0
0
0
0
0
0
0
0
0
0
0
0
0
0
0
0
0
0
0
0
0
0
0
0
0
0
0
0
0
0
0
0
0
0
0
0
0
0
0
0
0
0
0
0
0
0
0
0
0
0
0
0
0
0
0
0
0
0
0
0
0
0
0
0
0
0
0
0
0
0
0
0
0
0
0
0
0
0
0
0
0
0
0
0
0
0
0
0
0
0
0
0
0
0
0
0
0
0
0
0
0
0
0
0
0
0
0
0
0
0
0
0
0
0
0
0
0
0
0
0
0
0
0
0
0
0
0
0
0
0
0
0
0
0
0
0
0
0
0
0
0
0
0
0
0
0
0
0
0
0
0
0
0
0
0
0
0
0
0
0
0
0
0
0
0
0
0
0
0
0
0
0
0
0
0
0
0
0
0
0
0
0
0
0
0
0
0
0
0
0
0
0
0
0
0
0
0
0
0
0
0
0
0
0
0
0
0
0
0
0
0
0
0
0
0
0
0
0
0
0
0
0
0
0
0
0
0
0
0
0
0
0
0
0
0
0
0
0
0
0
0
0
0
0
0
0
0
0
0
0
0
0
0
0
0
0
0
0
0
0
0
0
0
0
0
0
0
0
0
0
0
0
0
0
0
0
0
0
0
0
0
0
0
0
0
0
0
0
0
0
0
0
0
0
0
0
0
0
0
0
0
0
0
0
0
0
0
0
0
0
0
0
0
0
0
0
0
0
0
0
0
0
0
0
0
0
0
0
0
0
0
0
0
0
0
0
0
0
0
0
0
0
0
0
0
0
0
0
0
0
0
0
0
0
0
0
0
0
0
0
0
0
0
0
0
0
0
0
0
0
0
0
0
0
0
0
0
0
0
0
0
0
0
0
0
0
0
0
0
0
0
0
0
0
0
0
0
0
0
0
0
0
0
0
0
0
0
0
0
0
0
0
0
0
0
0
0
0
0
0
0
0
0
0
0
0
0
0
0
0
0
0
0
0
0
0
0
0
0
0
0
0
0
0
0
0
0
0
0
0
0
0
0
0
0
0
0
0
0
0
0
0
0
0
0
0
0
0
0
0
0
0
0
0
0
0
0
0
0
0
0
0
0
0
0
0
0
0
0
0
0
0
0
0
0
0
0
0
0
0
0
0
0
0
0
0
0
0
0
0
0
0
0
0
0
0
0
0
0
0
0
0
0
0
0
0
0
0
0
0
0
0
0
0
0
0
0
0
0
0
0
0
0
0
0
0
0
0
0
0
0
0
0
0
0
0
0
0
0
0
0
0
0
0
0
0
0
0
0
0
0
0
0
0
0
0
0
0
0
0
0
0
0
0
0
0
0
0
0
0
0
0
0
0
0
0
0
0
0
0
0
0
0
0
0
0
0
0
0
0
0
0
0
0
0
0
0
0
0
0
0
0
0
0
0
0
0
0
0
0
0
0
0
0
0
0
0
0
0
0
0
0
0
0
0
0
0
0
0
0
0
0
0
0
0
0
0
0
0
0
0
0
0
0
0
0
0
0
0
0
0
0
0
0
0
0
0
0
0
0
0
0
0
0
0
0
0
0
0
0
0
0
0
0
0
0
0
0
0
0
0
0
0
0
0
0
0
0
0
0
0
0
0
0
0
0
0
0
0
0
0
0
0
0
0
0
0
0
0
0
0
0
0
0
0
0
0
0
0
0
0
0
0
0
0
0
0
0
0
0
0
0
0
0
0
0
0
0
0
0
0
0
0
0
0
0
0
0
0
0
0
0
0
0
0
0
0
0
0
0
0
0
0
0
0
0
0
0
0
0
0
0
0
0
0
0
0
0
0
0
0
0
0
0
0
0
0
0
0
0
0
0
0
0
0
0
0
0
0
0
0
0
0
0
0
0
0
0
0
0
0
0
0
0
0
0
0
0
0
0
0
0
0
0
0
0
0
0
0
0
0
0
0
0
0
0
0
0
0
0
0
0
0
0
0
0
0
0
0
0
0
0
0
0
0
0
0
0
0
0
0
0
0
0
0
0
0
0
0
0
0
0
0
0
0
0
0
0
0
0
0
0
0
0
0
0
0
0
0
0
0
0
0
0
0
0
0
0
0
0
0
0
0
0
0
0
0
0
0
0
0
0
0
0
0
0
0
0
0
0
0
0
0
0
0
0
0
0
0
0
0
0
0
0
0
0
0
0
0
0
0
0
0
0
0
0
0
0
0
0
0
0
0
0
0
0
0
0
0
0
0
0
0
0
0
0
0
0
0
0
0
0
0
0
0
0
0
0
0
0
0
0
0
0
0
0
0
0
0
0
0
0
0
0
0
0
0
0
0
0
0
0
0
0
0
0
0
0
0
0
0
0
0
0
0
0
0
0
0
0
0
0
0
0
0
0
0
0
0
0
0
0
0
0
0
0
0
0
0
0
0
0
0
0
0
0
0
0
0
0
0
0
0
0
0
0
0
0
0
0
0
0
0
0
0
0
0
96.12961
94.6082
101.4153
143.4651
104.4466
221.4051
165.9196
253.3125
274.7239
181.8606
254.5201
211.0476
158.2624
183.8322
139.6227
166.1648
168.6345
161.5395
151.2244
119.6532
145.5424
0
0
0
0
0
0
0
0
0
0
0
0
0
0
0
0
0
0
0
0
0
0
0
0
0
0
0
5.910725
0
0
51.01302
82.05302
0
0
0
0
0
0
0
0
0
0
0
0
0
0
0
0
0
0
0
0
0
0
0
0
0
0
0
0
0
0
0
0
21.17212
48.51355
0
0
0
0
0.01415671
0
0
0
0
0
0
0
0
0
0
0
0
0
0
0
0
0
0
0
0
0
0
0
0
0
0
0
0
0
0
0
220.0646
220.7168
257.269
146.886
147.3372
183.9524
75.09535
75.50938
111.1902
0.2801913
0.468777
38.58644
221.4583
221.9839
258.6085
147.7856
148.2165
185.0426
75.95457
76.38481
112.0644
0.7178411
0.7862669
39.80104
148.6381
149.0766
185.9394
76.82631
77.26048
112.9144
0.8109878
0.8378487
40.66714
224.3145
224.9501
261.2021
149.5486
150.0127
187.3519
77.70308
78.15075
113.8004
0.8652224
0.8925672
41.33637
225.6249
226.306
262.7906
150.4772
150.9208
188.5
78.59876
79.04952
114.681
0.9199667
0.9468564
41.88964
151.3822
151.8323
189.6175
79.48585
79.86737
115.5608
0.9729847
0.9994203
42.41375
227.8086
227.7268
265.7894
152.2344
152.6491
189.3831
80.24977
80.63761
116.4506
1.025833
1.051784
42.91253
153.1073
153.5525
190.28
81.02696
81.41697
117.2985
1.07731
1.101632
43.37692
229.4948
230.0843
268.8062
154.0188
154.4596
191.2192
81.81481
82.20656
118.1096
1.127313
1.153425
43.83441
230.6923
231.2734
270.3028
154.9256
155.3323
192.1439
82.60724
83.00558
118.9195
1.178665
1.204822
44.28256
231.8778
232.4352
271.1879
155.7588
156.1701
193.08
83.41227
83.81569
119.7382
1.229847
1.254405
44.70216
232.5348
232.6705
271.5422
156.6007
157.0332
193.6379
84.22773
84.63662
120.5665
1.278863
1.30417
45.11676
232.8077
232.9333
271.8873
157.1124
157.2025
193.8404
85.05436
85.49332
121.065
1.329581
1.357701
45.50173
233.0729
233.2066
272.232
157.3053
157.403
194.0447
85.56181
85.6669
121.2712
1.388658
1.491347
45.48081
233.3503
233.4952
272.5667
157.5168
157.6242
194.2653
85.784
85.89076
121.491
1.729164
1.781439
45.44155
233.632
233.7976
272.9173
157.7424
157.8604
194.4997
86.01892
86.1304
121.7221
1.785283
1.82862
45.19639
234.0412
235.4228
273.3741
157.9785
158.2103
196.31
86.25934
86.3833
121.9696
1.893893
1.951861
44.97968
236.8871
237.2905
273.851
158.4212
158.5583
197.8005
86.51632
86.65495
122.2385
2.015712
2.080181
44.76744
237.5181
237.7263
274.257
158.7005
158.8488
198.1538
86.7925
86.93499
122.5233
2.14827
2.217929
44.55212
237.9534
238.1879
274.672
158.9999
159.1591
198.5338
87.08351
87.23119
122.8247
2.279944
2.345934
44.29438
238.4097
238.6716
275.1175
159.3167
159.49
198.9334
87.38664
87.54002
123.1526
2.410099
2.476275
44.04196
238.9154
239.2218
275.5613
159.6604
159.8436
199.3766
87.70406
87.85807
123.4831
2.545223
2.614058
43.78243
239.5323
239.5873
276.2251
160.0459
161.1722
200.6732
88.01925
88.18449
123.8926
2.689284
2.763173
43.53684
162.947
163.8919
203.3352
88.34581
88.51878
124.4189
2.842223
2.925063
43.2986
241.0061
241.1523
277.0641
164.185
164.46
204.4387
88.6879
88.86546
124.841
3.008788
3.094143
43.0617
241.4054
241.7444
277.8526
164.7319
165.0211
205.0911
89.04547
89.22959
125.2985
3.182576
3.276148
42.83108
242.1059
242.4862
278.5361
165.4602
166.6198
205.8999
89.41351
89.67128
126.9173
3.370982
3.471933
42.60391
242.8754
243.3196
279.1888
168.8166
170.1328
206.8248
89.96908
90.21251
130.1745
3.574143
3.681931
42.43552
389.653
389.7608
423.1302
317.153
317.4714
353.5611
243.7819
244.2916
280.8613
170.6941
171.1433
207.7913
90.41704
90.61864
130.8546
3.790133
3.907878
42.32248
390.047
390.4433
424.0023
317.8599
318.3377
354.5454
244.8098
245.3507
281.9099
171.604
172.0748
208.7905
90.82512
91.14422
131.8364
4.027555
4.154468
42.26041
391.0743
391.6036
426.2657
318.861
319.3835
355.5145
245.9446
246.5035
283.0341
172.6614
173.1806
209.8467
93.51871
95.35733
136.1207
4.284835
4.423866
42.40122
392.3327
393.5775
428.2405
319.9158
320.3966
356.5915
247.1002
247.631
284.1248
173.6286
174.0355
210.8373
95.91176
96.27231
137.4339
4.562263
4.713003
42.94318
394.3717
395.1486
430.1714
320.7742
320.9954
357.6172
248.0797
248.3838
284.8117
174.4344
174.8078
211.5608
97.13332
101.0388
138.6624
4.874318
5.079546
48.32451
396.4906
397.98
429.6778
321.1822
320.9824
358.8385
248.4173
248.0536
284.4254
174.9972
175.1473
211.3813
104.4605
107.5314
140.4474
5.324094
5.731773
55.30779
397.9787
396.8374
427.9528
320.4129
318.7809
359.7147
246.8305
244.2216
281.2458
175.311
175.3664
208.5292
111.3801
115.1507
144.8439
6.314213
6.494277
62.67354
393.985
389.6301
421.4261
314.8581
311.6651
353.1376
239.6528
234.0659
269.2092
175.081
173.4917
201.2923
119.6638
128.823
149.8902
7.74471
9.333718
87.35818
381.6528
371.9258
403.8028
306.2131
297.6109
332.1463
228.5005
220.6051
251.6957
168.671
160.1281
190.734
131.7045
125.4004
138.6839
10.06396
10.84713
96.45746
359.7102
348.8623
379.0326
288.3122
275.6637
311.1079
209.2177
197.4697
244.871
148.0099
138.2058
171.5695
115.0608
104.2416
117.7625
24.60694
29.022
92.1123
337.7379
329.1481
359.8254
266.3587
257.244
293.6618
193.1949
191.1669
220.7075
136.6367
133.8574
154.1098
96.9337
92.26327
112.1726
33.32808
42.06257
86.43701
324.4576
327.885
359.2133
253.8596
254.9085
293.4459
187.2523
179.8546
214.8273
134.5869
132.4224
157.1231
90.28982
91.38364
116.1792
48.92531
47.4143
70.44716
338.722
352.604
401.1123
254.2944
250.1491
303.3827
173.4115
168.2041
203.0869
129.9388
130.0322
147.981
91.21348
89.54875
110.2386
50.35476
54.43611
60.81172
365.7294
384.1459
459.5201
244.2529
246.2406
311.064
162.7793
160.1023
194.3941
125.8643
122.4238
139.5951
89.77371
90.02581
107.1707
60.45331
59.84652
58.8242
391.4382
406.0045
492.3482
240.3649
239.8507
310.519
160.7121
160.9578
188.6046
120.1706
119.3422
138.6767
93.86274
99.66639
103.3994
56.01218
60.08639
58.4502
404.7822
431.4394
548.1896
239.456
245.919
320.2494
159.9232
160.3858
187.8289
119.2036
125.8576
141.5392
107.7676
112.6757
107.8054
65.15873
71.57595
71.44838
456.0492
473.0792
592.6444
248.8181
256.3763
354.086
160.849
164.7573
197.8505
130.1677
133.5454
138.1907
115.7295
113.2327
117.0193
75.32831
73.68556
68.44429
481.3078
490.3027
626.2864
262.3926
267.2774
371.9106
170.6798
171.6473
203.6805
136.704
137.3253
146.7256
113.5341
110.2513
118.8208
75.83936
69.73391
66.67915
487.6351
486.6939
607.0355
270.367
276.2208
367.7877
176.2761
178.3246
209.6023
141.5201
149.1257
157.2094
119.0501
131.3313
129.2636
74.25917
88.34777
105.1209
460.8704
446.3061
571.129
277.7198
270.6291
345.8289
175.1239
179.028
213.8472
144.5804
140.4903
149.7991
141.0358
148.9849
144.6665
116.0039
124.14
138.4424
434.764
415.903
511.7507
255.2675
250.2711
322.382
174.3577
160.4704
191.6168
133.1768
138.8569
148.8258
150.538
133.5165
133.1063
148.3626
140.0606
151.9405
396.1241
375.7435
455.3258
228.8697
217.3189
287.5843
160.2674
161.7726
176.8105
137.3479
131.2875
143.2109
129.0064
127.2597
138.3104
128.0344
113.4294
114.9132
355.652
353.6631
425.7165
199.8641
201.8342
270.3964
149.9318
153.351
173.5577
131.9234
130.7256
147.1375
117.3783
114.9154
130.7445
99.0397
89.11322
105.3099
330.885
304.5701
371.0288
197.0174
184.3332
232.3779
163.5456
170.9467
176.6774
139.2296
154.5899
161.4404
119.6881
120.1933
139.5177
94.6039
67.44183
114.4813
286.9466
253.7611
318.4508
180.7846
178.3428
200.4887
180.5851
188.948
185.2384
158.4385
163.1411
170.4659
129.3829
137.4599
150.8879
232.9536
210.9635
269.064
167.3798
160.3323
172.5513
180.1721
171.0122
165.3843
163.3874
163.4813
169.7987
134.7258
137.0173
150.4687
200.6061
188.173
236.6501
155.3803
148.4468
156.3814
152.6459
147.0916
146.9868
145.2808
146.2763
148.1454
184.4104
178.9042
226.3449
146.4989
145.8952
153.341
142.2597
139.8961
141.156
151.0143
153.8743
139.757
176.8263
176.9813
229.9841
146.0509
150.9049
153.0261
141.2712
146.8762
151.0658
147.6121
138.9538
139.1676
183.2526
195.0572
248.6998
161.4609
173.9885
172.3967
149.7014
152.7537
166.6446
135.8349
137.8989
143.597
203.6512
213.7133
275.8579
175.9658
169.6075
181.8416
158.4561
155.3344
161.8284
150.2181
152.3434
155.6003
170.6513
147.2661
142.6678
215.0552
220.8808
284.1747
160.1189
149.704
171.525
149.3808
144.6477
142.7416
149.3973
141.4865
145.6833
144.3572
122.4109
114.1522
206.8429
204.639
272.0556
139.9215
143.307
162.8514
144.2604
144.7372
132.1355
145.4965
144.8986
150.8207
129.7187
154.0555
153.1086
127.9291
141.6311
154.2398
209.4555
200.2675
272.2611
144.5053
143.1035
161.4567
142.7489
145.8876
150.543
142.3945
151.5491
159.976
158.6206
144.9507
159.9147
118.6316
100.3831
138.2683
200.7814
203.4438
255.0123
154.2438
157.6504
166.8308
161.733
168.3002
165.3003
148.9341
153.7889
158.0125
136.267
130.9183
154.8503
96.32636
95.31626
124.8514
206.227
211.6158
264.1041
159.5717
155.4598
171.5461
162.5003
155.1772
154.2389
159.611
151.6321
159.5009
136.9534
154.9722
151.1593
89.6327
75.8397
143.1838
213.3865
217.4734
272.8411