/*--------------------------------*- C++ -*----------------------------------*\
| =========                 |                                                 |
| \\      /  F ield         | OpenFOAM: The Open Source CFD Toolbox           |
|  \\    /   O peration     | Version:  2206                                  |
|   \\  /    A nd           | Website:  www.openfoam.com                      |
|    \\/     M anipulation  |                                                 |
\*---------------------------------------------------------------------------*/
FoamFile
{
    version     2.0;
    format      ascii;
    arch        "LSB;label=32;scalar=64";
    class       volVectorField;
    location    "2.4";
    object      U;
}
// * * * * * * * * * * * * * * * * * * * * * * * * * * * * * * * * * * * * * //

dimensions      [0 1 -1 0 0 0 0];

internalField   nonuniform List<vector> 
13078
(
(5.552403e-06 -6.987899e-05 -6.656734e-28)
(-1.594273e-06 -1.108717e-05 3.335058e-30)
(-2.257582e-06 -1.005874e-05 1.183616e-27)
(-2.418408e-06 -8.22351e-06 0)
(-2.473893e-06 -8.720148e-06 1.645879e-28)
(-2.557185e-06 -8.781348e-06 7.913484e-29)
(-2.658556e-06 -8.896499e-06 1.148387e-29)
(-1.693773e-05 -2.790236e-05 0)
(-1.447765e-05 -8.29334e-06 -1.011776e-29)
(-5.473186e-06 -5.249429e-06 0)
(-3.579289e-06 -7.204042e-06 0)
(-2.82646e-06 -8.164785e-06 2.616693e-31)
(-2.584641e-06 -8.514526e-06 3.500237e-31)
(-2.568354e-06 -8.777988e-06 1.000748e-30)
(1.552324e-05 -3.931731e-06 1.609697e-27)
(1.884982e-06 -3.028249e-06 -8.416293e-28)
(-2.008735e-06 -4.647749e-06 -3.137706e-28)
(-2.410555e-06 -6.271217e-06 -4.357342e-28)
(-2.292821e-06 -7.242858e-06 -1.30918e-28)
(-2.244625e-06 -7.908166e-06 0)
(-2.293851e-06 -8.394863e-06 -5.704043e-36)
(1.250842e-05 -5.815338e-07 8.78897e-28)
(4.613795e-06 -1.145742e-06 -1.220766e-27)
(7.916892e-07 -3.336465e-06 -7.858411e-28)
(-7.059231e-07 -4.962899e-06 -2.404975e-28)
(-1.239762e-06 -6.214764e-06 4.017986e-30)
(-1.539702e-06 -7.159281e-06 0)
(-1.779758e-06 -7.878828e-06 3.969054e-31)
(1.034768e-05 -6.633995e-08 1.48216e-30)
(5.926929e-06 -5.749743e-07 -4.975091e-28)
(2.905376e-06 -2.267228e-06 -7.568593e-28)
(1.106959e-06 -3.918769e-06 -5.261612e-28)
(4.624284e-08 -5.311208e-06 2.480423e-28)
(-5.707039e-07 -6.463212e-06 -5.948013e-33)
(-1.050296e-06 -7.371367e-06 3.29206e-29)
(9.739353e-06 -4.796162e-08 0)
(6.983675e-06 -4.566935e-07 -3.927381e-30)
(4.552139e-06 -1.800178e-06 4.340409e-30)
(2.748971e-06 -3.297794e-06 -3.007102e-28)
(1.479454e-06 -4.715709e-06 -2.818318e-30)
(5.362081e-07 -5.938224e-06 -1.402896e-29)
(-1.606514e-07 -6.983051e-06 -1.164912e-28)
(9.639323e-06 -1.615448e-07 0)
(7.828283e-06 -6.027058e-07 -4.660884e-28)
(5.91712e-06 -1.739356e-06 -3.704506e-28)
(4.24806e-06 -3.061845e-06 1.861629e-29)
(2.873782e-06 -4.429462e-06 -2.664921e-28)
(1.766385e-06 -5.684132e-06 5.531317e-30)
(8.152977e-07 -6.765215e-06 0)
(9.909044e-06 -2.923873e-07 1.019205e-27)
(8.644319e-06 -8.493449e-07 -4.810966e-28)
(7.122775e-06 -1.900039e-06 -4.328454e-28)
(5.610653e-06 -3.137368e-06 0)
(4.217301e-06 -4.436969e-06 -6.242852e-28)
(2.994781e-06 -5.672772e-06 9.158051e-30)
(1.895916e-06 -6.788825e-06 1.358129e-29)
(1.0475e-05 -4.161573e-07 5.059419e-32)
(9.527959e-06 -1.129188e-06 1.021259e-27)
(8.272517e-06 -2.200779e-06 4.733636e-28)
(6.899126e-06 -3.405431e-06 5.533821e-30)
(5.520249e-06 -4.670025e-06 -1.429793e-27)
(4.22243e-06 -5.892852e-06 1.285976e-29)
(2.99106e-06 -7.01873e-06 0)
(1.129831e-05 -5.31216e-07 -1.143557e-27)
(1.053331e-05 -1.421273e-06 1.104686e-27)
(9.449112e-06 -2.577524e-06 5.166452e-28)
(8.177895e-06 -3.80891e-06 -9.332659e-28)
(6.813304e-06 -5.080759e-06 -3.531782e-31)
(5.456314e-06 -6.31185e-06 0)
(4.110853e-06 -7.454991e-06 0)
(1.235927e-05 -6.436497e-07 0)
(1.169468e-05 -1.723527e-06 0)
(1.071167e-05 -3.005399e-06 1.143325e-27)
(9.500487e-06 -4.314682e-06 -1.045909e-27)
(8.133811e-06 -5.636438e-06 4.687054e-31)
(6.717325e-06 -6.904892e-06 0)
(5.263371e-06 -8.082231e-06 0)
(1.365244e-05 -7.562273e-07 0)
(1.303793e-05 -2.039257e-06 -1.338405e-27)
(1.210282e-05 -3.479236e-06 1.272752e-27)
(1.091198e-05 -4.907329e-06 1.157795e-27)
(9.52e-06 -6.318194e-06 -1.08243e-27)
(8.032729e-06 -7.655769e-06 0)
(6.465678e-06 -8.890143e-06 8.484094e-28)
(1.518377e-05 -8.730064e-07 0)
(1.458427e-05 -2.375127e-06 -1.497752e-27)
(1.365714e-05 -4.000753e-06 -1.320344e-29)
(1.24511e-05 -5.582104e-06 1.318661e-27)
(1.100912e-05 -7.118134e-06 -1.202869e-27)
(9.432037e-06 -8.556986e-06 1.065218e-27)
(7.739685e-06 -9.873729e-06 9.282964e-31)
(1.696599e-05 -9.973338e-07 -1.704488e-27)
(1.635637e-05 -2.737945e-06 0)
(1.540574e-05 -4.575848e-06 -1.567751e-29)
(1.41493e-05 -6.340727e-06 -2.177682e-29)
(1.263949e-05 -8.033573e-06 -2.723326e-27)
(1.09448e-05 -9.608146e-06 1.214112e-27)
(9.109991e-06 -1.103348e-05 -1.047868e-27)
(1.901828e-05 -1.13197e-06 -1.90989e-27)
(1.837981e-05 -3.134817e-06 0)
(1.738285e-05 -5.21648e-06 -3.652098e-29)
(1.604629e-05 -7.208772e-06 2.016001e-27)
(1.447378e-05 -9.05093e-06 -1.045325e-27)
(1.260638e-05 -1.080913e-05 0)
(1.060376e-05 -1.237404e-05 1.196983e-27)
(2.136478e-05 -1.278947e-06 0)
(2.068092e-05 -3.569133e-06 -2.096297e-27)
(1.961628e-05 -5.914593e-06 0)
(1.820458e-05 -8.129459e-06 1.954723e-27)
(1.647685e-05 -1.02327e-05 7.375991e-29)
(1.444101e-05 -1.217867e-05 8.910444e-29)
(1.224815e-05 -1.390779e-05 1.469736e-27)
(2.403512e-05 -1.441232e-06 0)
(2.329102e-05 -4.051061e-06 -4.716557e-27)
(2.21359e-05 -6.697871e-06 -2.415541e-29)
(2.060612e-05 -9.18967e-06 -3.326191e-29)
(1.871729e-05 -1.15515e-05 0)
(1.648497e-05 -1.372465e-05 0)
(1.407205e-05 -1.564857e-05 0)
(2.706436e-05 -1.621192e-06 -2.712256e-27)
(2.624622e-05 -4.586166e-06 -2.663764e-27)
(2.498104e-05 -7.569578e-06 -5.502422e-29)
(2.330477e-05 -1.037535e-05 -3.782018e-29)
(2.122869e-05 -1.302687e-05 0)
(1.877335e-05 -1.546288e-05 -2.119575e-27)
(1.61056e-05 -1.761432e-05 -2.652719e-28)
(3.049251e-05 -1.821043e-06 -3.055682e-27)
(2.958647e-05 -5.181329e-06 -2.999555e-27)
(2.819159e-05 -8.540961e-06 -9.348664e-29)
(2.634239e-05 -1.169987e-05 -8.568276e-29)
(2.404138e-05 -1.467512e-05 0)
(2.135273e-05 -1.740576e-05 -2.272034e-27)
(1.838066e-05 -1.982699e-05 -1.495986e-28)
(3.43647e-05 -2.043331e-06 -3.446246e-27)
(3.335643e-05 -5.84368e-06 -6.738851e-27)
(3.181333e-05 -9.624691e-06 -3.243314e-27)
(2.977226e-05 -1.319114e-05 0)
(2.721116e-05 -1.657014e-05 9.353038e-28)
(2.432351e-05 -1.953971e-05 1.418373e-27)
(2.094097e-05 -2.230342e-05 3.36226e-28)
(3.873108e-05 -2.290144e-06 -3.888315e-27)
(3.760453e-05 -6.578993e-06 -7.580912e-27)
(3.589113e-05 -1.082436e-05 -7.272951e-27)
(3.363466e-05 -1.481958e-05 -3.354186e-27)
(3.085593e-05 -1.855478e-05 1.373268e-28)
(2.758573e-05 -2.199855e-05 -2.858e-27)
(2.381529e-05 -2.50848e-05 2.372597e-27)
(4.364775e-05 -2.564811e-06 0)
(4.238515e-05 -7.397396e-06 -4.250744e-27)
(4.047779e-05 -1.216327e-05 -4.076619e-27)
(3.797021e-05 -1.665378e-05 -7.811369e-27)
(3.489383e-05 -2.084581e-05 0)
(3.125018e-05 -2.47228e-05 -3.23315e-27)
(2.705792e-05 -2.819334e-05 4.543568e-30)
(4.917669e-05 -2.869688e-06 4.929562e-27)
(4.775888e-05 -8.306106e-06 0)
(4.563421e-05 -1.365029e-05 0)
(4.284649e-05 -1.869151e-05 1.340652e-28)
(3.9426e-05 -2.33976e-05 4.267892e-27)
(3.535548e-05 -2.774455e-05 0)
(3.073774e-05 -3.164277e-05 -3.28829e-27)
(5.538557e-05 -3.207298e-06 1.110391e-26)
(5.379095e-05 -9.312136e-06 0)
(5.142429e-05 -1.529696e-05 0)
(4.83294e-05 -2.095337e-05 4.809647e-27)
(4.454232e-05 -2.626204e-05 9.054043e-27)
(4.000178e-05 -3.122936e-05 -4.198808e-27)
(3.502339e-05 -3.541829e-05 0)
(6.234732e-05 -3.580063e-06 6.250065e-27)
(6.055083e-05 -1.042211e-05 3.827644e-29)
(5.791406e-05 -1.711158e-05 5.946892e-27)
(5.447855e-05 -2.343637e-05 1.724681e-28)
(5.029544e-05 -2.935467e-05 2.229593e-28)
(4.537685e-05 -3.481012e-05 -4.762751e-27)
(3.972896e-05 -3.97477e-05 0)
(7.014036e-05 -3.990469e-06 0)
(6.81137e-05 -1.1644e-05 -6.865767e-27)
(6.517603e-05 -1.911046e-05 6.625275e-27)
(6.136503e-05 -2.618078e-05 0)
(5.673443e-05 -3.281373e-05 -5.402074e-27)
(5.130934e-05 -3.893877e-05 1.1618e-27)
(4.503468e-05 -4.45371e-05 6.699555e-28)
(7.884789e-05 -4.440289e-06 -7.9021e-27)
(7.656079e-05 -1.298378e-05 -7.72153e-27)
(7.328891e-05 -2.130242e-05 7.445471e-27)
(6.907126e-05 -2.919024e-05 0)
(6.396225e-05 -3.660798e-05 -5.421959e-28)
(5.797922e-05 -4.348082e-05 -8.408507e-31)
(5.103428e-05 -4.980171e-05 7.489361e-28)
(8.855498e-05 -4.931333e-06 -8.877705e-27)
(8.598265e-05 -1.44421e-05 -8.66866e-27)
(8.233358e-05 -2.369504e-05 8.37348e-27)
(7.767686e-05 -3.247579e-05 0)
(7.206303e-05 -4.075755e-05 0)
(6.552087e-05 -4.850745e-05 -6.873678e-27)
(5.791541e-05 -5.581835e-05 -2.426767e-28)
(9.935243e-05 -5.455493e-06 -9.979335e-27)
(9.647018e-05 -1.602353e-05 -9.79441e-27)
(9.239299e-05 -2.62979e-05 0)
(8.72612e-05 -3.604466e-05 8.424725e-27)
(8.109986e-05 -4.524191e-05 -6.718476e-28)
(7.394465e-05 -5.379107e-05 -1.472681e-26)
(6.574272e-05 -6.153499e-05 2.767485e-27)
(0.0001113158 -6.058378e-06 -1.116414e-26)
(0.0001081829 -1.766592e-05 0)
(0.0001035762 -2.909765e-05 -1.075286e-26)
(9.792399e-05 -3.992423e-05 9.777329e-27)
(9.118551e-05 -5.017139e-05 -9.463763e-27)
(8.33595e-05 -5.979019e-05 -1.751254e-26)
(7.433275e-05 -6.868455e-05 -7.899621e-27)
(0.0001247009 -6.617565e-06 0)
(0.0001210109 -1.952639e-05 0)
(0.0001159797 -3.210396e-05 -2.364585e-26)
(0.0001097739 -4.410576e-05 0)
(0.0001024572 -5.549855e-05 -2.13116e-26)
(9.402012e-05 -6.629633e-05 -9.890643e-27)
(8.433015e-05 -7.65161e-05 8.960728e-27)
(0.0001394608 -7.314179e-06 -1.406106e-26)
(0.0001351082 -2.162404e-05 1.353965e-26)
(0.0001298046 -3.513788e-05 1.310126e-26)
(0.0001229861 -4.848426e-05 0)
(0.0001150088 -6.117239e-05 -1.199517e-26)
(0.0001060023 -7.31954e-05 0)
(9.571434e-05 -8.458726e-05 7.646906e-27)
(0.0001557413 -8.000102e-06 -1.565958e-26)
(0.0001509214 -2.357161e-05 1.53375e-26)
(0.0001447053 -3.876722e-05 4.43583e-26)
(0.0001378476 -5.28901e-05 2.892727e-26)
(0.0001289912 -6.713127e-05 -1.246346e-26)
(0.0001194355 -8.057884e-05 1.201833e-27)
(0.0001085364 -9.345234e-05 -1.401033e-27)
(0.0001735737 -8.730396e-06 3.056925e-29)
(0.0001680593 -2.564939e-05 9.307883e-29)
(0.0001614097 -4.193422e-05 1.72558e-26)
(0.0001537048 -5.776006e-05 3.074281e-26)
(0.0001445637 -7.327967e-05 -1.73294e-26)
(0.0001345223 -8.83443e-05 2.634399e-27)
(0.0001231561 -0.0001029267 6.184548e-27)
(0.0001930336 -9.483818e-06 -3.296727e-29)
(0.0001866432 -2.784835e-05 -1.006129e-28)
(0.0001794001 -4.555145e-05 1.795569e-26)
(0.0001708977 -6.300312e-05 1.036599e-26)
(0.0001621319 -7.90885e-05 -1.097936e-26)
(0.0001516255 -9.612413e-05 1.317098e-26)
(0.0001398156 -0.0001127634 0)
(0.0002140894 -1.019302e-05 0)
(0.0002066643 -2.98799e-05 0)
(0.0001988221 -4.874045e-05 2.07627e-26)
(0.0001902841 -6.720966e-05 2.203446e-26)
(0.0001806575 -8.585955e-05 3.086692e-26)
(0.0001713257 -0.0001033854 2.962424e-26)
(0.0001587391 -0.0001226606 0)
(0.0002365828 -1.080522e-05 -7.381365e-29)
(0.0002279307 -3.161838e-05 2.191439e-28)
(0.0002193867 -5.151372e-05 7.452402e-28)
(0.0002106965 -7.098569e-05 0)
(0.0002015282 -9.051894e-05 4.333539e-26)
(0.0001920109 -0.000110777 -3.288076e-27)
(0.0001800372 -0.0001317397 -7.964209e-27)
(0.0002601413 -1.120193e-05 -2.624041e-26)
(0.0002501189 -3.274544e-05 2.343407e-28)
(0.0002409539 -5.343833e-05 -2.549095e-26)
(0.0002323195 -7.404244e-05 0)
(0.0002237806 -9.530812e-05 2.71051e-26)
(0.0002140577 -0.0001178306 1.495303e-27)
(0.0002042406 -0.0001384189 -3.985086e-26)
(0.0002840684 -1.122934e-05 -2.872435e-26)
(0.0002728407 -3.286342e-05 -2.815126e-26)
(0.0002632843 -5.400701e-05 -2.807448e-26)
(0.0002550765 -7.543167e-05 -2.216613e-27)
(0.0002472697 -9.749108e-05 -5.849744e-27)
(0.0002379652 -0.0001196747 1.538811e-26)
(0.0002273918 -0.0001425714 -1.820448e-26)
(0.0003074979 -1.087749e-05 0)
(0.0002955955 -3.157e-05 3.028764e-26)
(0.0002860687 -5.275999e-05 3.06416e-26)
(0.0002782633 -7.461317e-05 1.125458e-27)
(0.0002707712 -9.704209e-05 -3.318903e-26)
(0.0002615828 -0.0001197869 -3.843563e-27)
(0.0002491912 -0.0001436266 0)
(0.0003297821 -9.81564e-06 3.357957e-26)
(0.0003171693 -2.945466e-05 6.500675e-26)
(0.0003084888 -4.902055e-05 3.061008e-26)
(0.0003011122 -7.051077e-05 6.646446e-26)
(0.0002934097 -9.236781e-05 -3.632839e-26)
(0.0002841893 -0.0001143047 2.94286e-26)
(0.0002704727 -0.000136431 2.319426e-26)
(0.0003492782 -8.250568e-06 3.554543e-26)
(0.000337623 -2.529412e-05 -1.998886e-28)
(0.000328595 -4.382727e-05 0)
(0.0003226445 -6.256316e-05 9.252178e-28)
(0.000315061 -8.373454e-05 7.249319e-26)
(0.0003051152 -0.0001062426 3.668542e-26)
(0.0002869907 -0.0001317179 4.633283e-26)
(0.0003650082 -6.213225e-06 -3.720252e-26)
(0.0003548979 -1.981176e-05 3.26253e-28)
(0.0003472206 -3.549356e-05 6.063757e-28)
(0.0003410302 -5.30516e-05 -8.122891e-26)
(0.0003355087 -7.203346e-05 6.907854e-26)
(0.0003228226 -9.88772e-05 -7.810004e-26)
(0.0002956103 -0.0001331211 1.045749e-26)
(0.0003759576 -3.788317e-06 -3.829918e-26)
(0.0003685 -1.321984e-05 0)
(0.0003622979 -2.544185e-05 9.512161e-28)
(0.0003588048 -4.086709e-05 1.573795e-27)
(0.0003506881 -6.402491e-05 -2.80531e-30)
(0.0003336345 -9.762011e-05 -8.084939e-26)
(0.0002970624 -0.0001466625 7.681114e-26)
(0.0003817309 -1.203883e-06 0)
(0.0003774087 -5.713642e-06 3.269018e-28)
(0.0003734447 -1.401745e-05 7.08958e-28)
(0.0003721044 -3.02115e-05 1.049947e-30)
(0.0003610444 -6.119818e-05 4.148824e-26)
(0.0003344479 -0.000108228 2.643842e-26)
(0.000292067 -0.000165602 1.066232e-25)
(0.0003820112 1.447347e-06 0)
(0.0003804694 2.290869e-06 4.487596e-32)
(0.0003787874 -3.198506e-06 4.08722e-26)
(0.000376864 -2.425641e-05 1.904146e-27)
(0.0003620999 -6.653187e-05 8.130103e-26)
(0.0003318221 -0.0001258984 4.906466e-30)
(0.0002837077 -0.0002022778 -5.151764e-29)
(0.0003758949 4.395657e-06 -3.811561e-26)
(0.0003773419 9.964093e-06 -3.907277e-26)
(0.0003765092 2.786906e-06 3.972477e-26)
(0.0003698635 -2.623402e-05 -3.964086e-26)
(0.0003531058 -7.784246e-05 -3.651683e-26)
(0.0003208883 -0.0001497571 7.002534e-33)
(0.000275508 -0.0002376142 -1.607173e-26)
(0.0003623575 7.594244e-06 -3.66564e-26)
(0.0003659227 1.534947e-05 -3.762197e-26)
(0.0003638425 2.400914e-06 -6.646624e-31)
(0.0003544267 -3.557917e-05 -3.713336e-26)
(0.0003344739 -9.857257e-05 -7.986227e-26)
(0.0003024073 -0.0001807228 -2.257672e-26)
(0.0002610214 -0.0002831061 9.090413e-26)
(0.0003409225 9.771885e-06 -3.650518e-29)
(0.0003443633 1.683245e-05 -9.128914e-29)
(0.0003403652 -3.231948e-06 -3.45784e-26)
(0.0003300045 -5.058666e-05 3.37052e-26)
(0.0003094706 -0.0001224827 -2.097134e-30)
(0.00027944 -0.000215723 -1.211331e-34)
(0.0002414389 -0.0003334308 1.725233e-25)
(0.0003113072 9.596966e-06 -3.129581e-26)
(0.0003126188 1.330142e-05 -1.136799e-30)
(0.0003065889 -1.367976e-05 -6.158499e-26)
(0.0002954781 -6.951662e-05 3.981982e-29)
(0.0002758157 -0.000150912 -3.600072e-26)
(0.0002502097 -0.000254963 -1.656125e-26)
(0.0002192481 -0.0003804056 -5.144832e-26)
(0.0002736011 7.027408e-06 -2.75132e-26)
(0.0002724196 4.04637e-06 1.803696e-28)
(0.0002646719 -2.90006e-05 -7.817218e-26)
(0.0002521503 -9.205063e-05 -3.010278e-26)
(0.0002324722 -0.0001822404 -2.625303e-26)
(0.0002098855 -0.0002942815 -1.517847e-26)
(0.0001891386 -0.0004259836 -8.539988e-27)
(0.000227634 1.988444e-06 6.415329e-31)
(0.0002256225 -9.099992e-06 5.45082e-28)
(0.0002181055 -4.932651e-05 -3.177244e-26)
(0.0002028018 -0.0001201627 3.351591e-26)
(0.0001822903 -0.0002187543 -2.365341e-30)
(0.0001603632 -0.0003379756 -7.796266e-27)
(0.0001434881 -0.000473861 -1.095074e-28)
(0.0001747154 -3.110878e-06 2.334006e-31)
(0.0001731484 -2.232949e-05 1.872284e-32)
(0.000165847 -7.091689e-05 -7.630691e-27)
(0.0001510596 -0.0001513482 1.215088e-26)
(0.0001308837 -0.0002577303 -5.494224e-30)
(0.0001081661 -0.0003858581 -1.387026e-30)
(8.976248e-05 -0.0005367799 7.454615e-26)
(0.0001176534 -8.048952e-06 4.00373e-29)
(0.0001167443 -3.544724e-05 -4.96511e-27)
(0.0001104633 -9.173332e-05 -3.195126e-27)
(9.865369e-05 -0.0001808776 4.381756e-27)
(8.207335e-05 -0.0002975462 9.706016e-27)
(6.166896e-05 -0.000439895 8.328994e-27)
(3.855705e-05 -0.000604879 -2.289996e-29)
(5.986795e-05 -1.240579e-05 -2.875475e-27)
(5.960603e-05 -4.718237e-05 -2.559586e-27)
(5.557442e-05 -0.0001096351 -1.97146e-27)
(4.765844e-05 -0.0002060667 -1.99393e-30)
(3.593567e-05 -0.000332036 -1.078125e-26)
(2.059044e-05 -0.0004870383 -1.08328e-26)
(2.120573e-06 -0.0006651543 3.826369e-29)
(1.503578e-06 -1.559488e-05 1.036158e-28)
(2.575204e-06 -5.527558e-05 2.256224e-28)
(1.583282e-06 -0.0001216902 -1.372571e-27)
(-1.824141e-06 -0.0002230206 -3.591169e-27)
(-7.515241e-06 -0.0003555656 -1.809417e-29)
(-1.586598e-05 -0.0005189975 3.97166e-27)
(-2.646219e-05 -0.0007055377 2.206891e-26)
(-5.778196e-05 -1.629315e-05 1.769554e-27)
(-5.55765e-05 -5.725147e-05 2.345504e-28)
(-5.405815e-05 -0.0001251866 -1.398126e-27)
(-5.326145e-05 -0.0002281941 -5.07759e-27)
(-5.287109e-05 -0.0003628297 8.289963e-30)
(-5.328665e-05 -0.0005286637 8.288365e-28)
(-5.527668e-05 -0.000717563 4.538147e-26)
(-0.0001148684 -1.487809e-05 8.697383e-27)
(-0.0001128472 -5.345458e-05 2.277468e-28)
(-0.0001098911 -0.0001198562 5.344979e-27)
(-0.0001057621 -0.000220787 -2.491734e-27)
(-9.994923e-05 -0.0003527459 7.060767e-30)
(-9.302842e-05 -0.0005152633 -1.655739e-26)
(-8.66085e-05 -0.0007002498 -2.106842e-26)
(-0.0001688125 -1.182556e-05 1.686529e-26)
(-0.0001676513 -4.526031e-05 -8.251996e-27)
(-0.0001639591 -0.0001078455 7.838879e-27)
(-0.0001572517 -0.0002045359 3.406629e-27)
(-0.0001471497 -0.0003314764 6.651834e-30)
(-0.0001349785 -0.0004878906 7.883212e-27)
(-0.0001227381 -0.0006671714 -1.928373e-26)
(-0.0002210453 -7.276564e-06 1.102141e-26)
(-0.0002214392 -3.381044e-05 -2.167629e-26)
(-0.0002181153 -9.139593e-05 1.425239e-31)
(-0.0002092747 -0.0001831321 3.233434e-30)
(-0.0001961648 -0.0003047915 7.911023e-27)
(-0.0001806204 -0.0004549368 2.938388e-26)
(-0.0001683818 -0.0006324577 4.083842e-26)
(-0.0002697288 -1.948329e-06 -5.531754e-29)
(-0.0002725705 -2.090124e-05 -2.682538e-26)
(-0.0002713235 -7.268935e-05 3.769431e-26)
(-0.0002631416 -0.000158645 -2.188687e-26)
(-0.0002487371 -0.0002771789 1.029556e-26)
(-0.0002313313 -0.0004227114 -9.312309e-26)
(-0.0002168681 -0.0005884985 -1.500465e-25)
(-0.0003118144 3.413087e-06 3.090046e-26)
(-0.0003181837 -7.796599e-06 -1.543511e-26)
(-0.0003181199 -5.230117e-05 2.82565e-26)
(-0.0003119745 -0.0001314693 8.909944e-34)
(-0.0002969423 -0.0002426199 6.437208e-30)
(-0.0002778077 -0.0003824861 -2.49878e-26)
(-0.0002596622 -0.0005473391 -2.134868e-26)
(-0.0003454221 6.792913e-06 3.42124e-26)
(-0.0003562152 3.445092e-06 -3.928751e-31)
(-0.00035827 -3.449791e-05 -6.896364e-26)
(-0.0003534088 -0.0001064718 -8.538893e-27)
(-0.0003383954 -0.0002096278 -2.196449e-26)
(-0.0003166455 -0.0003417713 -4.623336e-26)
(-0.00029221 -0.0005024446 1.752813e-26)
(-0.0003709983 7.613856e-06 -2.547933e-32)
(-0.0003857568 9.156421e-06 -3.728761e-26)
(-0.0003913876 -2.039273e-05 -7.355078e-26)
(-0.0003888474 -8.32735e-05 1.762466e-31)
(-0.000374287 -0.0001767366 1.518563e-29)
(-0.0003498689 -0.0002978713 8.719953e-30)
(-0.0003220977 -0.0004511887 -4.039187e-32)
(-0.0003885788 5.573775e-06 -3.849228e-26)
(-0.0004051196 9.025781e-06 7.177053e-30)
(-0.0004147226 -1.162727e-05 1.379708e-27)
(-0.0004152262 -6.393394e-05 3.072253e-27)
(-0.0004036723 -0.0001482507 4.65883e-26)
(-0.0003788061 -0.0002556206 -6.911322e-26)
(-0.0003495988 -0.0003888437 -7.543476e-26)
(-0.0003977653 1.973684e-06 -3.947045e-26)
(-0.0004133822 3.54555e-06 3.97884e-26)
(-0.0004261995 -9.484971e-06 3.991006e-26)
(-0.0004317361 -5.016086e-05 -3.995925e-30)
(-0.0004262269 -0.0001194351 7.316607e-26)
(-0.00040437 -0.0002164273 -2.487102e-28)
(-0.0003728491 -0.0003358741 -1.56033e-28)
(-0.0003990169 -1.445521e-06 0)
(-0.000412101 -5.040391e-06 3.01004e-30)
(-0.000425745 -1.495018e-05 -4.264382e-26)
(-0.0004380534 -4.404236e-05 -4.513783e-26)
(-0.0004382195 -0.0001022639 -3.360929e-31)
(-0.0004220464 -0.0001848828 -3.693147e-26)
(-0.000391098 -0.0002924097 -8.938232e-26)
(-0.0003934627 -4.249009e-06 0)
(-0.0004038676 -1.341318e-05 -7.163104e-28)
(-0.0004158409 -2.616709e-05 -4.134667e-26)
(-0.0004303956 -4.894625e-05 -4.053877e-26)
(-0.0004364153 -9.282344e-05 7.238157e-27)
(-0.0004280908 -0.0001620747 1.135428e-26)
(-0.0004040562 -0.0002501599 3.716293e-26)
(-0.0003824665 -6.359003e-06 -3.803929e-26)
(-0.0003894661 -2.06431e-05 0)
(-0.0003986664 -3.798522e-05 0)
(-0.0004107469 -5.992983e-05 -3.01488e-30)
(-0.0004203591 -9.394417e-05 -8.9054e-26)
(-0.0004216429 -0.0001468743 -1.908898e-26)
(-0.0004052761 -0.0002252548 7.007902e-26)
(-0.0003665736 -8.203171e-06 -3.647423e-26)
(-0.0003704487 -2.607829e-05 -4.659084e-28)
(-0.0003765771 -4.705818e-05 -8.464128e-28)
(-0.0003844866 -7.183878e-05 -8.938442e-27)
(-0.0003939884 -0.0001009833 -8.51798e-26)
(-0.0003982148 -0.0001439446 4.89022e-30)
(-0.0003904495 -0.0002049929 -1.184562e-29)
(-0.0003468788 -9.664522e-06 0)
(-0.0003482433 -2.995992e-05 3.431788e-26)
(-0.0003512831 -5.314014e-05 0)
(-0.0003561734 -7.887792e-05 -2.527063e-27)
(-0.0003602404 -0.0001100026 -3.516211e-27)
(-0.000362835 -0.0001469195 2.233515e-31)
(-0.0003600252 -0.0001933022 4.431098e-26)
(-0.0003246126 -1.063423e-05 0)
(-0.0003239773 -3.257677e-05 -3.174085e-26)
(-0.0003250001 -5.582172e-05 3.165446e-26)
(-0.000325657 -8.284927e-05 0)
(-0.0003254363 -0.0001134668 -6.76919e-27)
(-0.0003240648 -0.0001474094 1.246518e-26)
(-0.000318145 -0.0001871428 6.382416e-27)
(-0.000300803 -1.117311e-05 0)
(-0.000299343 -3.337907e-05 -8.847072e-26)
(-0.0002978712 -5.731038e-05 -4.657448e-29)
(-0.000295639 -8.339857e-05 -6.174098e-26)
(-0.0002923622 -0.0001116243 -6.611457e-27)
(-0.0002861135 -0.0001438144 2.677378e-26)
(-0.0002754067 -0.0001804501 -3.818993e-26)
(-0.0002767003 -1.114419e-05 2.755076e-26)
(-0.0002744746 -3.349778e-05 -2.760752e-26)
(-0.0002715695 -5.668265e-05 1.124456e-29)
(-0.0002675544 -8.118303e-05 -5.037621e-26)
(-0.0002614019 -0.0001073832 0)
(-0.0002523216 -0.0001353264 0)
(-0.0002396727 -0.0001656578 -3.233314e-26)
(-0.0002528608 -1.08601e-05 2.510001e-26)
(-0.0002502595 -3.261489e-05 -2.501357e-26)
(-0.0002465097 -5.488181e-05 2.421616e-26)
(-0.0002413011 -7.762281e-05 2.350849e-26)
(-0.0002334084 -0.0001018258 0)
(-0.0002223671 -0.0001274545 0)
(-0.0002091042 -0.0001517357 -2.622562e-26)
(-0.0002298824 -1.035995e-05 -2.290658e-26)
(-0.0002271019 -3.107515e-05 -2.336455e-26)
(-0.0002230152 -5.184005e-05 -7.451578e-28)
(-0.0002168653 -7.319797e-05 2.013768e-26)
(-0.0002081101 -9.512041e-05 7.759731e-27)
(-0.0001970582 -0.0001165106 -2.731965e-26)
(-0.0001820369 -0.0001389662 1.310729e-26)
(-0.0002082124 -9.705793e-06 -2.081632e-26)
(-0.0002054622 -2.902801e-05 -2.120861e-28)
(-0.0002010605 -4.846728e-05 7.005436e-28)
(-0.0001945929 -6.80234e-05 9.904389e-28)
(-0.000185726 -8.784207e-05 0)
(-0.0001745369 -0.0001070233 -1.930024e-26)
(-0.0001599827 -0.0001263549 1.539183e-26)
(-0.0001880292 -9.043362e-06 0)
(-0.0001853648 -2.690036e-05 -3.854551e-28)
(-0.0001808507 -4.491255e-05 -6.50462e-28)
(-0.000174111 -6.30869e-05 4.029765e-26)
(-0.000165933 -8.01067e-05 8.65274e-27)
(-0.0001545365 -9.778187e-05 2.719214e-26)
(-0.0001412428 -0.0001143364 1.037438e-26)
(-0.0001694671 -8.307612e-06 -5.818024e-29)
(-0.0001668479 -2.473771e-05 -1.791276e-28)
(-0.0001624308 -4.110011e-05 0)
(-0.0001561897 -5.73366e-05 -4.797585e-29)
(-0.0001476361 -7.336982e-05 1.447915e-26)
(-0.0001372713 -8.873696e-05 1.34393e-26)
(-0.0001249962 -0.0001031635 -3.001648e-27)
(-0.0001524648 -7.619544e-06 1.517945e-26)
(-0.0001499358 -2.26847e-05 -1.529621e-26)
(-0.0001455675 -3.780701e-05 2.610934e-26)
(-0.0001399458 -5.213332e-05 -3.078529e-26)
(-0.000131714 -6.662301e-05 1.199032e-26)
(-0.000122151 -8.017734e-05 0)
(-0.00011082 -9.283506e-05 2.703457e-27)
(-0.000136948 -6.96556e-06 1.370671e-26)
(-0.0001344477 -2.077255e-05 -1.321038e-26)
(-0.0001306612 -3.41316e-05 1.277369e-26)
(-0.0001249465 -4.750326e-05 0)
(-0.000117601 -6.026976e-05 -1.163997e-26)
(-0.000108797 -7.227814e-05 0)
(-9.842021e-05 -8.343416e-05 9.808749e-27)
(-0.0001228872 -6.301732e-06 0)
(-0.0001207013 -1.872419e-05 0)
(-0.0001169573 -3.106736e-05 -2.317263e-26)
(-0.0001117276 -4.298922e-05 0)
(-0.0001050534 -5.435093e-05 -2.0847e-26)
(-9.696095e-05 -6.505738e-05 -9.659623e-27)
(-8.741759e-05 -7.50363e-05 8.742023e-27)
(-0.0001101502 -5.766068e-06 -1.098155e-26)
(-0.00010825 -1.690886e-05 0)
(-0.0001047415 -2.806436e-05 -1.018589e-26)
(-9.996724e-05 -3.874164e-05 1.020922e-26)
(-9.387108e-05 -4.888641e-05 -9.33313e-27)
(-8.647811e-05 -5.837454e-05 -1.727838e-26)
(-7.774756e-05 -6.705453e-05 -7.806403e-27)
(-9.877364e-05 -5.189416e-06 -9.82906e-27)
(-9.692999e-05 -1.530812e-05 -9.583491e-27)
(-9.379486e-05 -2.528796e-05 0)
(-8.945732e-05 -3.484358e-05 9.392136e-27)
(-8.392471e-05 -4.389642e-05 6.350371e-28)
(-7.724791e-05 -5.229729e-05 -1.623859e-26)
(-6.942263e-05 -5.985515e-05 -2.625012e-27)
(-8.851498e-05 -4.687027e-06 -8.827194e-27)
(-8.682546e-05 -1.377342e-05 -8.634068e-27)
(-8.399763e-05 -2.272551e-05 8.356209e-27)
(-8.006318e-05 -3.129109e-05 0)
(-7.505532e-05 -3.940315e-05 0)
(-6.901127e-05 -4.698981e-05 -6.924281e-27)
(-6.183256e-05 -5.410566e-05 1.222743e-26)
(-7.930237e-05 -4.21698e-06 -7.907645e-27)
(-7.777528e-05 -1.236327e-05 -7.742226e-27)
(-7.522647e-05 -2.038467e-05 7.484517e-27)
(-7.166736e-05 -2.80481e-05 0)
(-6.713548e-05 -3.528654e-05 5.096996e-28)
(-6.165258e-05 -4.200025e-05 8.533401e-31)
(-5.515215e-05 -4.815861e-05 -7.069738e-28)
(-7.104669e-05 -3.787086e-06 0)
(-6.968189e-05 -1.107242e-05 -6.93615e-27)
(-6.738666e-05 -1.825222e-05 6.713431e-27)
(-6.417683e-05 -2.509873e-05 0)
(-6.008991e-05 -3.155186e-05 -6.478616e-27)
(-5.515127e-05 -3.752406e-05 -1.093414e-27)
(-4.931966e-05 -4.298129e-05 -6.320034e-28)
(-6.366443e-05 -3.395588e-06 6.350779e-27)
(-6.245101e-05 -9.899059e-06 -3.554847e-29)
(-6.038939e-05 -1.631707e-05 5.957316e-27)
(-5.750324e-05 -2.2425e-05 -1.612155e-28)
(-5.382808e-05 -2.816856e-05 -1.990199e-28)
(-4.937355e-05 -3.347932e-05 -4.969858e-27)
(-4.415241e-05 -3.829559e-05 0)
(-5.707479e-05 -3.040673e-06 1.138587e-26)
(-5.599984e-05 -8.836455e-06 0)
(-5.415162e-05 -1.456775e-05 0)
(-5.155951e-05 -2.001737e-05 5.298575e-27)
(-4.82461e-05 -2.515674e-05 9.861281e-27)
(-4.414926e-05 -2.998058e-05 -4.442721e-27)
(-3.957114e-05 -3.406398e-05 0)
(-5.120098e-05 -2.719853e-06 5.106474e-27)
(-5.025108e-05 -7.87601e-06 -2.838369e-29)
(-4.859716e-05 -1.298615e-05 -4.672698e-29)
(-4.627137e-05 -1.783386e-05 -1.316044e-28)
(-4.329187e-05 -2.238166e-05 4.179402e-27)
(-3.963851e-05 -2.659785e-05 0)
(-3.540748e-05 -3.038634e-05 -3.592763e-27)
(-4.597254e-05 -2.430662e-06 -4.280904e-30)
(-4.513553e-05 -7.010638e-06 -4.535962e-27)
(-4.365857e-05 -1.156243e-05 -4.397492e-27)
(-4.15769e-05 -1.587367e-05 -8.317407e-27)
(-3.891062e-05 -1.991744e-05 0)
(-3.565779e-05 -2.367113e-05 -3.536526e-27)
(-3.183358e-05 -2.703843e-05 4.31815e-30)
(-4.132412e-05 -2.17062e-06 -4.117627e-27)
(-4.058836e-05 -6.233035e-06 -8.099319e-27)
(-3.927132e-05 -1.028404e-05 -7.872177e-27)
(-3.740947e-05 -1.411468e-05 -3.843237e-27)
(-3.501352e-05 -1.771202e-05 -1.287443e-28)
(-3.211045e-05 -2.104077e-05 -3.183697e-27)
(-2.868811e-05 -2.403065e-05 3.090453e-27)
(-3.719605e-05 -1.937326e-06 -3.708588e-27)
(-3.655008e-05 -5.535768e-06 -7.282742e-27)
(-3.537501e-05 -9.141241e-06 -3.52807e-27)
(-3.370248e-05 -1.255655e-05 0)
(-3.150434e-05 -1.580542e-05 -8.701551e-28)
(-2.895997e-05 -1.867346e-05 -1.327375e-27)
(-2.590418e-05 -2.134585e-05 -3.172228e-28)
(-3.353444e-05 -1.727636e-06 -3.346393e-27)
(-3.296749e-05 -4.909066e-06 -3.274623e-27)
(-3.191734e-05 -8.111459e-06 8.735456e-29)
(-3.041471e-05 -1.113397e-05 8.026902e-29)
(-2.845633e-05 -1.399148e-05 0)
(-2.609632e-05 -1.662124e-05 -2.632379e-27)
(-2.342879e-05 -1.895857e-05 1.41331e-28)
(-3.029111e-05 -1.539522e-06 -3.021563e-27)
(-2.979343e-05 -4.347209e-06 -2.959708e-27)
(-2.885416e-05 -7.190532e-06 5.152173e-29)
(-2.750604e-05 -9.872726e-06 3.549378e-29)
(-2.575464e-05 -1.241528e-05 0)
(-2.36131e-05 -1.475621e-05 -2.271848e-27)
(-2.123419e-05 -1.682781e-05 2.509338e-28)
(-2.742264e-05 -1.370592e-06 2.3861e-30)
(-2.698458e-05 -3.843393e-06 -5.366576e-27)
(-2.614095e-05 -6.366082e-06 2.267512e-29)
(-2.492524e-05 -8.745971e-06 3.129298e-29)
(-2.334736e-05 -1.100661e-05 0)
(-2.141559e-05 -1.308946e-05 0)
(-1.927879e-05 -1.49357e-05 0)
(-2.489035e-05 -1.218801e-06 0)
(-2.450217e-05 -3.391145e-06 -2.438803e-27)
(-2.3739e-05 -5.627337e-06 0)
(-2.263164e-05 -7.740538e-06 2.208353e-27)
(-2.12049e-05 -9.749071e-06 -6.971237e-29)
(-1.945917e-05 -1.160785e-05 -8.443284e-29)
(-1.753209e-05 -1.325999e-05 1.687561e-27)
(-2.266013e-05 -1.082046e-06 -2.256666e-27)
(-2.231127e-05 -2.985325e-06 0)
(-2.161089e-05 -4.970876e-06 3.457652e-29)
(-2.057602e-05 -6.868892e-06 1.742716e-27)
(-1.92974e-05 -8.623624e-06 -2.404548e-27)
(-1.77109e-05 -1.02954e-05 0)
(-1.596545e-05 -1.178219e-05 1.62647e-27)
(-2.070268e-05 -9.577486e-07 -2.060948e-27)
(-2.038145e-05 -2.616837e-06 0)
(-1.972794e-05 -4.37129e-06 1.498057e-29)
(-1.877392e-05 -6.04932e-06 2.080937e-29)
(-1.755801e-05 -7.653712e-06 -3.530505e-27)
(-1.613631e-05 -9.14232e-06 1.634698e-27)
(-1.455133e-05 -1.048721e-05 -1.4864e-27)
(-1.899329e-05 -8.442146e-07 0)
(-1.868707e-05 -2.282733e-06 -1.853386e-27)
(-1.806407e-05 -3.835405e-06 1.278915e-29)
(-1.716586e-05 -5.333508e-06 1.714974e-27)
(-1.602011e-05 -6.779911e-06 -1.615256e-27)
(-1.471289e-05 -8.12946e-06 1.494594e-27)
(-1.326392e-05 -9.361333e-06 9.080191e-31)
(-1.751134e-05 -7.392436e-07 0)
(-1.72035e-05 -1.976838e-06 -1.715217e-27)
(-1.65883e-05 -3.35179e-06 1.661445e-27)
(-1.571772e-05 -4.696168e-06 1.59135e-27)
(-1.46274e-05 -6.012239e-06 -1.463413e-27)
(-1.340815e-05 -7.253963e-06 4.799779e-29)
(-1.207728e-05 -8.397564e-06 1.244116e-27)
(-1.624126e-05 -6.403118e-07 0)
(-1.590936e-05 -1.693291e-06 0)
(-1.527396e-05 -2.91382e-06 1.536511e-27)
(-1.440294e-05 -4.132896e-06 -1.455326e-27)
(-1.33458e-05 -5.349382e-06 4.823169e-31)
(-1.219476e-05 -6.512356e-06 0)