/*--------------------------------*- C++ -*----------------------------------*\
| =========                 |                                                 |
| \\      /  F ield         | OpenFOAM: The Open Source CFD Toolbox           |
|  \\    /   O peration     | Version:  2206                                  |
|   \\  /    A nd           | Website:  www.openfoam.com                      |
|    \\/     M anipulation  |                                                 |
\*---------------------------------------------------------------------------*/
FoamFile
{
    version     2.0;
    format      ascii;
    arch        "LSB;label=32;scalar=64";
    class       volVectorField;
    location    "2.4";
    object      U.a;
}
// * * * * * * * * * * * * * * * * * * * * * * * * * * * * * * * * * * * * * //

dimensions      [0 1 -1 0 0 0 0];

internalField   nonuniform List<vector> 
13078
(
(1.62805e-05 -0.0001452708 2.992342e-27)
(2.739711e-06 -6.568233e-05 2.684754e-32)
(1.843111e-07 -3.542948e-05 -6.534612e-29)
(-2.250558e-07 -2.154627e-05 0)
(-3.327156e-07 -1.594236e-05 -1.191056e-29)
(-3.895404e-07 -1.250355e-05 -1.159288e-29)
(-4.278747e-07 -9.919625e-06 -1.163113e-29)
(-5.327955e-05 -5.495127e-05 0)
(-2.752523e-05 -4.342441e-05 -4.190835e-32)
(-9.566649e-06 -2.679452e-05 0)
(-4.268309e-06 -1.931141e-05 0)
(-2.469107e-06 -1.516037e-05 4.344487e-34)
(-1.66143e-06 -1.208394e-05 3.628839e-34)
(-1.256053e-06 -9.668066e-06 1.023798e-33)
(-1.670636e-05 -1.264811e-05 1.33975e-30)
(-1.457137e-05 -1.892058e-05 1.733348e-31)
(-8.988526e-06 -1.777893e-05 1.359253e-29)
(-5.540063e-06 -1.552677e-05 2.313676e-29)
(-3.604764e-06 -1.306438e-05 1.156707e-29)
(-2.522161e-06 -1.083746e-05 0)
(-1.8962e-06 -8.872045e-06 -6.624905e-35)
(-5.094218e-06 -4.555413e-06 -6.398202e-32)
(-7.416433e-06 -9.457133e-06 6.668785e-31)
(-6.662772e-06 -1.162766e-05 2.172179e-30)
(-5.120813e-06 -1.159006e-05 1.42187e-30)
(-3.807843e-06 -1.054503e-05 2.759146e-33)
(-2.885986e-06 -9.172138e-06 0)
(-2.266901e-06 -7.729896e-06 3.430017e-35)
(-2.020826e-06 -2.35471e-06 -2.951052e-31)
(-4.137616e-06 -5.544096e-06 -6.915387e-31)
(-4.572382e-06 -7.604531e-06 6.996633e-31)
(-4.150366e-06 -8.340238e-06 -1.347341e-31)
(-3.499468e-06 -8.163644e-06 -1.392469e-29)
(-2.88555e-06 -7.439265e-06 -2.711503e-35)
(-2.399503e-06 -6.448258e-06 1.166955e-29)
(-9.22235e-07 -1.461034e-06 0)
(-2.395413e-06 -3.472944e-06 7.407917e-31)
(-3.101514e-06 -5.085161e-06 -7.472998e-31)
(-3.203753e-06 -5.941211e-06 6.574132e-31)
(-2.99842e-06 -6.131692e-06 1.499627e-30)
(-2.687316e-06 -5.832093e-06 -1.178349e-29)
(-2.370915e-06 -5.178965e-06 -2.341579e-29)
(-4.955341e-07 -1.029726e-06 0)
(-1.483165e-06 -2.313645e-06 5.020304e-31)
(-2.147395e-06 -3.484935e-06 -1.139139e-29)
(-2.452581e-06 -4.228583e-06 -1.200704e-29)
(-2.504346e-06 -4.520644e-06 2.157808e-30)
(-2.412012e-06 -4.416277e-06 1.487227e-30)
(-2.257234e-06 -3.998271e-06 0)
(-3.075867e-07 -7.86599e-07 -8.105363e-31)
(-9.937953e-07 -1.612738e-06 4.911265e-31)
(-1.553935e-06 -2.43613e-06 5.404282e-31)
(-1.918115e-06 -3.011419e-06 0)
(-2.098165e-06 -3.276894e-06 1.361949e-30)
(-2.145471e-06 -3.232698e-06 1.491952e-30)
(-2.113064e-06 -2.924864e-06 1.490714e-30)
(-2.148829e-07 -6.326239e-07 3.236891e-32)
(-7.225947e-07 -1.154853e-06 -1.011104e-30)
(-1.18948e-06 -1.721409e-06 9.561388e-31)
(-1.553364e-06 -2.125655e-06 1.509646e-30)
(-1.793665e-06 -2.311912e-06 4.102165e-30)
(-1.925998e-06 -2.259522e-06 1.494325e-30)
(-1.979804e-06 -1.986623e-06 0)
(-1.660999e-07 -5.259307e-07 7.656199e-31)
(-5.696005e-07 -8.335892e-07 -9.441477e-31)
(-9.687967e-07 -1.205349e-06 -4.94899e-31)
(-1.315855e-06 -1.458219e-06 1.685113e-30)
(-1.582301e-06 -1.549552e-06 -3.887294e-32)
(-1.765326e-06 -1.453959e-06 0)
(-1.878441e-06 -1.174913e-06 0)
(-1.40018e-07 -4.465398e-07 0)
(-4.844599e-07 -5.934409e-07 0)
(-8.398952e-07 -8.125335e-07 -9.794946e-31)
(-1.170498e-06 -9.353936e-07 1.591917e-30)
(-1.448645e-06 -9.311302e-07 4.03559e-32)
(-1.662952e-06 -7.760454e-07 0)
(-1.817237e-06 -4.666708e-07 0)
(-1.270561e-07 -3.839118e-07 0)
(-4.405399e-07 -4.033741e-07 8.796911e-31)
(-7.714347e-07 -4.978837e-07 -8.733417e-31)
(-1.092131e-06 -5.085758e-07 -3.106302e-30)
(-1.377815e-06 -4.132961e-07 -3.868503e-31)
(-1.61366e-06 -1.921159e-07 0)
(-1.79801e-06 1.611404e-07 1.781652e-30)
(-1.223818e-07 -3.315218e-07 0)
(-4.23379e-07 -2.446351e-07 -7.298765e-31)
(-7.446572e-07 -2.334581e-07 -1.493582e-30)
(-1.063565e-06 -1.452359e-07 -1.468899e-30)
(-1.35779e-06 3.561056e-08 1.08934e-30)
(-1.611301e-06 3.248695e-07 -1.10234e-30)
(-1.819737e-06 7.294359e-07 3.912682e-32)
(-1.232972e-07 -2.85525e-07 5.791582e-31)
(-4.249375e-07 -1.055371e-07 0)
(-7.481175e-07 -8.515629e-10 -1.494514e-30)
(-1.073169e-06 1.770249e-07 -1.521263e-30)
(-1.379452e-06 4.387656e-07 2.000205e-30)
(-1.65026e-06 7.963683e-07 -9.821419e-31)
(-1.880308e-06 1.256416e-06 1.054715e-30)
(-1.283325e-07 -2.432926e-07 4.432239e-31)
(-4.404117e-07 2.179723e-08 0)
(-7.742141e-07 2.124063e-07 -2.986952e-30)
(-1.108368e-06 4.736053e-07 2.051284e-29)
(-1.4301e-06 8.131865e-07 2.53493e-29)
(-1.724891e-06 1.239672e-06 0)
(-1.977533e-06 1.757849e-06 -1.016362e-30)
(-1.366548e-07 -2.029744e-07 0)
(-4.674415e-07 1.430405e-07 4.476889e-31)
(-8.211468e-07 4.156012e-07 0)
(-1.175966e-06 7.558377e-07 2.473463e-30)
(-1.519423e-06 1.170701e-06 3.075001e-30)
(-1.835682e-06 1.668315e-06 3.041341e-30)
(-2.110657e-06 2.247191e-06 2.152868e-30)
(-1.477449e-07 -1.631395e-07 0)
(-5.040399e-07 2.624772e-07 5.16862e-31)
(-8.840762e-07 6.157084e-07 -1.492133e-30)
(-1.264841e-06 1.034944e-06 -1.505973e-30)
(-1.635419e-06 1.526232e-06 0)
(-1.978313e-06 2.094986e-06 0)
(-2.278367e-06 2.736741e-06 0)
(-1.614528e-07 -1.227601e-07 6.742859e-31)
(-5.496725e-07 3.834108e-07 -7.024973e-31)
(-9.626463e-07 8.1838e-07 -2.986997e-30)
(-1.375788e-06 1.317925e-06 -1.508352e-30)
(-1.778753e-06 1.887615e-06 0)
(-2.152593e-06 2.529913e-06 -2.435324e-30)
(-2.480707e-06 3.237583e-06 -6.105532e-30)
(-1.777663e-07 -8.086437e-08 4.469415e-31)
(-6.042266e-07 5.087373e-07 -8.620615e-31)
(-1.056735e-06 1.028483e-06 -4.485082e-30)
(-1.508589e-06 1.611544e-06 -3.022107e-30)
(-1.949475e-06 2.262795e-06 0)
(-2.359005e-06 2.982324e-06 4.084633e-31)
(-2.718597e-06 3.76012e-06 -3.064799e-30)
(-1.96824e-07 -3.661096e-08 -2.953031e-31)
(-6.680849e-07 6.410608e-07 -8.007867e-31)
(-1.166914e-06 1.250381e-06 -3.307724e-31)
(-1.663249e-06 1.921741e-06 0)
(-2.141525e-06 2.656252e-06 2.47199e-29)
(-2.590919e-06 3.457537e-06 3.121887e-29)
(-2.992495e-06 4.314332e-06 6.175123e-30)
(-2.188956e-07 1.088772e-08 -1.169736e-30)
(-7.422913e-07 7.829688e-07 -6.32858e-31)
(-1.295317e-06 1.488396e-06 2.243915e-31)
(-1.845137e-06 2.254674e-06 2.507121e-30)
(-2.373845e-06 3.077122e-06 3.067115e-30)
(-2.869698e-06 3.966917e-06 9.989406e-31)
(-3.310468e-06 4.910853e-06 -3.387041e-30)
(-2.445001e-07 6.233796e-08 0)
(-8.282873e-07 9.368318e-07 4.36966e-31)
(-1.44375e-06 1.746725e-06 5.156566e-31)
(-2.054178e-06 2.616492e-06 -1.679744e-30)
(-2.639179e-06 3.53979e-06 0)
(-3.188077e-06 4.527554e-06 6.897041e-31)
(-3.67432e-06 5.562388e-06 6.381381e-32)
(-2.743688e-07 1.185162e-07 1.100156e-30)
(-9.281961e-07 1.104964e-06 0)
(-1.615851e-06 2.029399e-06 0)
(-2.295885e-06 3.013268e-06 2.967164e-30)
(-2.945406e-06 4.048406e-06 3.982614e-30)
(-3.553653e-06 5.144498e-06 0)
(-4.090967e-06 6.280452e-06 -2.425485e-31)
(-3.09452e-07 1.80154e-07 2.952794e-30)
(-1.045038e-06 1.289622e-06 0)
(-1.816416e-06 2.340451e-06 0)
(-2.576606e-06 3.451003e-06 -1.446142e-30)
(-3.298991e-06 4.610959e-06 -4.370123e-31)
(-3.964844e-06 5.82137e-06 -9.116632e-31)
(-4.559404e-06 7.071163e-06 0)
(-3.511487e-07 2.478368e-07 1.901091e-30)
(-1.182887e-06 1.49285e-06 1.491467e-30)
(-2.052016e-06 2.683745e-06 3.646212e-30)
(-2.905379e-06 3.935719e-06 3.054324e-30)
(-3.713776e-06 5.235822e-06 3.15935e-30)
(-4.455307e-06 6.573694e-06 -1.350093e-30)
(-5.113233e-06 7.953056e-06 0)
(-4.011967e-07 3.220669e-07 0)
(-1.346829e-06 1.716231e-06 -2.789782e-30)
(-2.330406e-06 3.062398e-06 2.735938e-30)
(-3.291187e-06 4.472476e-06 0)
(-4.196348e-06 5.930779e-06 3.945557e-30)
(-5.021085e-06 7.423168e-06 1.266126e-29)
(-5.749635e-06 8.952052e-06 6.591917e-30)
(-4.620504e-07 4.030567e-07 -2.773421e-30)
(-1.543734e-06 1.960694e-06 -3.485548e-30)
(-2.661909e-06 3.478533e-06 3.235855e-30)
(-3.746778e-06 5.065132e-06 0)
(-4.761359e-06 6.702028e-06 -6.243406e-30)
(-5.678479e-06 8.371039e-06 -7.092941e-34)
(-6.483387e-06 1.007161e-05 6.655632e-30)
(-5.367442e-07 4.907354e-07 -3.404363e-30)
(-1.7823e-06 2.226147e-06 -4.057864e-30)
(-3.059978e-06 3.932961e-06 3.983637e-30)
(-4.288218e-06 5.715922e-06 0)
(-5.425681e-06 7.554074e-06 0)
(-6.442822e-06 9.424587e-06 -2.894268e-30)
(-7.318095e-06 1.131151e-05 -5.081618e-29)
(-6.300052e-07 5.845441e-07 -5.147087e-30)
(-2.075113e-06 2.51149e-06 -6.428005e-30)
(-3.5424e-06 4.424713e-06 0)
(-4.936122e-06 6.424905e-06 -1.892697e-30)
(-6.210632e-06 8.488665e-06 -6.323638e-30)
(-7.337897e-06 1.058821e-05 -6.59819e-31)
(-8.303507e-06 1.269219e-05 1.979578e-29)
(-7.43491e-07 6.823273e-07 -4.744638e-30)
(-2.431897e-06 2.809914e-06 0)
(-4.131238e-06 4.950483e-06 -8.482888e-30)
(-5.716912e-06 7.189761e-06 2.088448e-30)
(-7.140452e-06 9.504241e-06 -4.693195e-30)
(-8.375865e-06 1.186146e-05 -8.471739e-30)
(-9.415363e-06 1.422524e-05 -3.590414e-30)
(-8.88175e-07 7.786301e-07 0)
(-2.883951e-06 3.120045e-06 0)
(-4.861093e-06 5.504299e-06 -1.276975e-29)
(-6.668408e-06 8.005309e-06 0)
(-8.251892e-06 1.059754e-05 -1.116967e-29)
(-9.588261e-06 1.324373e-05 -5.078926e-30)
(-1.067873e-05 1.590114e-05 4.340381e-30)
(-1.078825e-06 8.799222e-07 -8.883115e-30)
(-3.448916e-06 3.43166e-06 5.093453e-30)
(-5.761667e-06 6.065683e-06 5.954304e-30)
(-7.839999e-06 8.862263e-06 0)
(-9.597057e-06 1.176337e-05 -6.593816e-30)
(-1.102097e-05 1.473235e-05 0)
(-1.213048e-05 1.771814e-05 -8.205609e-30)
(-1.328645e-06 9.787659e-07 -7.609462e-30)
(-4.173653e-06 3.732943e-06 9.336752e-30)
(-6.897274e-06 6.621775e-06 2.500501e-29)
(-9.293974e-06 9.729261e-06 2.046239e-29)
(-1.124723e-05 1.299214e-05 -9.124537e-31)
(-1.273615e-05 1.632467e-05 6.680625e-30)
(-1.380638e-05 1.968437e-05 -6.817762e-30)
(-1.656558e-06 1.070089e-06 1.140187e-30)
(-5.125003e-06 4.033936e-06 1.493828e-30)
(-8.362936e-06 7.16934e-06 1.651001e-29)
(-1.114942e-05 1.061454e-05 1.023137e-29)
(-1.330787e-05 1.427341e-05 -2.219065e-29)
(-1.482069e-05 1.80153e-05 1.352512e-29)
(-1.576284e-05 2.179602e-05 2.765941e-29)
(-2.084479e-06 1.146448e-06 -1.138052e-30)
(-6.351195e-06 4.306877e-06 -1.494986e-30)
(-1.024838e-05 7.718122e-06 5.518029e-30)
(-1.348301e-05 1.149867e-05 -4.73755e-29)
(-1.587827e-05 1.556814e-05 -6.781903e-29)
(-1.736958e-05 1.979935e-05 -4.592912e-30)
(-1.806496e-05 2.404101e-05 0)
(-2.633208e-06 1.201947e-06 0)
(-7.905936e-06 4.537646e-06 0)
(-1.262235e-05 8.238666e-06 1.336163e-29)
(-1.641007e-05 1.236964e-05 2.571481e-29)
(-1.90617e-05 1.689127e-05 8.041966e-29)
(-2.049541e-05 2.163669e-05 6.899186e-29)
(-2.084595e-05 2.648976e-05 0)
(-3.313084e-06 1.233054e-06 -2.265769e-30)
(-9.804563e-06 4.73136e-06 2.986543e-30)
(-1.54912e-05 8.764457e-06 6.213266e-30)
(-1.99454e-05 1.333977e-05 0)
(-2.294435e-05 1.831155e-05 2.833039e-29)
(-2.437951e-05 2.37019e-05 -1.659879e-29)
(-2.459899e-05 2.986322e-05 -4.415651e-29)
(-4.113293e-06 1.255487e-06 -1.142068e-29)
(-1.198685e-05 4.94387e-06 2.990961e-30)
(-1.877562e-05 9.381142e-06 -1.67552e-29)
(-2.403188e-05 1.445702e-05 0)
(-2.753367e-05 2.000689e-05 3.223268e-29)
(-2.955035e-05 2.653421e-05 -1.215597e-28)
(-3.043355e-05 3.51926e-05 -3.326427e-28)
(-4.988223e-06 1.317133e-06 -1.299048e-29)
(-1.432252e-05 5.273856e-06 -1.590558e-29)
(-2.234387e-05 1.017306e-05 -1.885505e-29)
(-2.858834e-05 1.57531e-05 -1.353355e-29)
(-3.328947e-05 2.226847e-05 -3.526965e-29)
(-3.719825e-05 3.093026e-05 -4.941141e-29)
(-4.001248e-05 4.325553e-05 -1.997875e-28)
(-5.841008e-06 1.469903e-06 0)
(-1.661713e-05 5.795698e-06 1.37917e-29)
(-2.599631e-05 1.116292e-05 2.094004e-29)
(-3.373026e-05 1.745087e-05 7.504503e-30)
(-4.073209e-05 2.552154e-05 -5.45806e-29)
(-4.76891e-05 3.701866e-05 -3.607237e-29)
(-5.435439e-05 5.371322e-05 0)
(-6.575475e-06 1.739739e-06 1.835244e-29)
(-1.86643e-05 6.551318e-06 2.123678e-29)
(-2.946605e-05 1.237383e-05 -1.808866e-30)
(-3.93514e-05 1.963846e-05 5.889058e-29)
(-4.957228e-05 2.961261e-05 -6.938516e-29)
(-6.068047e-05 4.398826e-05 2.509676e-29)
(-7.326508e-05 6.487922e-05 -3.840909e-29)
(-7.124249e-06 2.143608e-06 1.739907e-29)
(-2.008561e-05 7.475762e-06 -2.941171e-30)
(-3.232563e-05 1.378194e-05 0)
(-4.463852e-05 2.211929e-05 5.931192e-30)
(-5.818364e-05 3.385408e-05 1.031206e-28)
(-7.333167e-05 5.037205e-05 7.933185e-29)
(-9.161775e-05 7.443793e-05 2.683924e-28)
(-7.324439e-06 2.640697e-06 -2.039194e-29)
(-2.073928e-05 8.588616e-06 5.800891e-30)
(-3.39211e-05 1.526023e-05 6.885325e-30)
(-4.797452e-05 2.436971e-05 -1.50222e-28)
(-6.384913e-05 3.715496e-05 1.088125e-29)
(-8.230264e-05 5.513183e-05 -1.536985e-28)
(-0.000104564 8.1322e-05 1.769778e-28)
(-7.047301e-06 3.192832e-06 -2.108109e-29)
(-2.025429e-05 9.724624e-06 0)
(-3.360813e-05 1.662541e-05 1.354154e-29)
(-4.804151e-05 2.604547e-05 1.871253e-29)
(-6.494973e-05 3.920745e-05 -2.80531e-30)
(-8.509114e-05 5.770599e-05 -1.856057e-28)
(-0.0001095577 8.588469e-05 2.834913e-28)
(-6.287216e-06 3.680104e-06 0)
(-1.854362e-05 1.073629e-05 1.132241e-29)
(-3.102793e-05 1.773796e-05 1.320952e-29)
(-4.47334e-05 2.713844e-05 1.049947e-30)
(-6.11695e-05 4.007688e-05 6.970204e-29)
(-8.095122e-05 5.87929e-05 3.309408e-28)
(-0.0001046445 8.82388e-05 6.973034e-28)
(-5.239279e-06 4.028636e-06 0)
(-1.593579e-05 1.159952e-05 4.487596e-32)
(-2.649598e-05 1.8609e-05 5.347942e-29)
(-3.824605e-05 2.759952e-05 3.376575e-29)
(-5.305744e-05 4.041904e-05 1.21558e-28)
(-6.986178e-05 5.940922e-05 4.906466e-30)
(-8.963832e-05 9.039524e-05 -5.151764e-29)
(-4.127495e-06 4.330333e-06 -1.860096e-29)
(-1.274671e-05 1.236733e-05 -2.284461e-29)
(-2.104588e-05 1.936532e-05 2.752816e-29)
(-3.007534e-05 2.796207e-05 -3.840261e-29)
(-4.133108e-05 4.062807e-05 -4.161976e-29)
(-5.398436e-05 6.089988e-05 7.002534e-33)
(-6.648612e-05 9.347121e-05 -1.842471e-28)
(-2.943574e-06 4.607378e-06 -1.973137e-29)
(-9.278852e-06 1.308576e-05 -2.2769e-29)
(-1.532646e-05 2.0214e-05 -6.646624e-31)
(-2.124703e-05 2.863658e-05 -3.245165e-29)
(-2.794725e-05 4.160658e-05 -2.048647e-28)
(-3.402489e-05 6.344224e-05 -2.293481e-28)
(-3.792405e-05 9.972966e-05 2.370267e-28)
(-1.694956e-06 4.835594e-06 1.882567e-30)
(-5.668778e-06 1.370772e-05 8.652969e-30)
(-9.384558e-06 2.116043e-05 -1.779598e-29)
(-1.247142e-05 2.993418e-05 2.790615e-29)
(-1.445373e-05 4.368528e-05 -2.097134e-30)
(-1.302312e-05 6.829976e-05 -1.211331e-34)
(-5.521496e-06 0.0001110555 1.457951e-27)
(-4.642631e-07 4.982968e-06 -1.515486e-29)
(-2.160904e-06 1.423178e-05 -1.136799e-30)
(-3.603793e-06 2.220113e-05 -3.937196e-29)
(-3.959908e-06 3.184195e-05 -2.496851e-30)
(-1.485343e-06 4.787463e-05 -1.195625e-28)
(7.742069e-06 7.757424e-05 -1.755185e-28)
(2.835177e-05 0.0001285635 -8.106283e-28)
(6.985345e-07 5.004273e-06 -4.905841e-30)
(1.170348e-06 1.449877e-05 9.180519e-30)
(1.802634e-06 2.332542e-05 -5.823681e-29)
(4.049388e-06 3.481599e-05 -7.231264e-29)
(1.121574e-05 5.491274e-05 -8.683371e-29)
(2.838963e-05 9.193437e-05 -5.128571e-29)
(6.053847e-05 0.0001522809 -6.795349e-29)
(1.63672e-06 4.892668e-06 6.415329e-31)
(3.943124e-06 1.451745e-05 1.11742e-29)
(6.68768e-06 2.458669e-05 5.37717e-29)
(1.189697e-05 3.903872e-05 1.46969e-28)
(2.395361e-05 6.505597e-05 -2.365341e-30)
(4.76943e-05 0.000109926 -1.651712e-29)
(8.684517e-05 0.0001766968 -1.095074e-28)
(2.212515e-06 4.794421e-06 2.334006e-31)
(5.799085e-06 1.476401e-05 1.872284e-32)
(1.032237e-05 2.635258e-05 -6.613962e-30)
(1.828723e-05 4.471799e-05 1.612318e-29)
(3.34965e-05 7.659107e-05 -5.494224e-30)
(5.873681e-05 0.0001259567 -1.387026e-30)
(9.745886e-05 0.0001943482 1.701387e-27)
(2.35649e-06 4.654988e-06 9.645288e-31)
(6.610885e-06 1.519736e-05 1.188205e-30)
(1.222819e-05 2.906585e-05 6.740037e-30)
(2.148863e-05 5.147416e-05 3.60949e-29)
(3.676411e-05 8.743934e-05 1.00165e-28)
(5.886494e-05 0.0001374468 1.319194e-28)
(8.941151e-05 0.0002016026 -2.289996e-29)
(2.17798e-06 4.576949e-06 -1.062127e-30)
(6.40888e-06 1.578535e-05 -1.391427e-30)
(1.211522e-05 3.202558e-05 -1.656026e-30)
(2.06009e-05 5.763191e-05 -1.99393e-30)
(3.273164e-05 9.532322e-05 -1.170209e-28)
(4.830921e-05 0.0001437107 -1.424558e-28)
(6.836908e-05 0.0002019512 3.826369e-29)
(1.725537e-06 4.523444e-06 1.405581e-30)
(5.308843e-06 1.652604e-05 1.669006e-30)
(9.890075e-06 3.468912e-05 -1.471839e-29)
(1.563402e-05 6.207151e-05 -3.305958e-29)
(2.226872e-05 9.967046e-05 -1.809417e-29)
(2.920052e-05 0.0001454378 -7.288662e-30)
(3.629202e-05 0.0001978332 4.212302e-28)
(1.04101e-06 4.561489e-06 -1.19635e-31)
(3.345966e-06 1.752668e-05 2.637616e-30)
(5.712726e-06 3.697892e-05 -9.857344e-30)
(7.451142e-06 6.484977e-05 -4.187601e-29)
(7.656904e-06 0.0001014233 8.289963e-30)
(5.442631e-06 0.0001449502 2.223802e-29)
(-8.111364e-07 0.000194329 7.707031e-28)
(3.056521e-07 4.743714e-06 5.614895e-30)
(9.397938e-07 1.886411e-05 3.245121e-30)
(7.236806e-07 3.911289e-05 1.126867e-29)
(-1.351231e-06 6.65797e-05 -4.300999e-30)
(-6.420257e-06 0.000101575 7.060767e-30)
(-1.582663e-05 0.0001432187 -1.731582e-28)
(-3.258586e-05 0.0001918572 -3.07776e-28)
(-3.834188e-07 5.246698e-06 9.825836e-30)
(-1.470183e-06 2.071805e-05 -1.058866e-29)
(-3.978074e-06 4.12469e-05 1.461047e-29)
(-8.847587e-06 6.743871e-05 2.999529e-29)
(-1.731768e-05 9.995159e-05 2.417029e-30)
(-3.122193e-05 0.0001387692 9.734241e-29)
(-5.446688e-05 0.0001856163 -3.372011e-28)
(-1.194516e-06 6.329947e-06 8.231608e-30)
(-4.008013e-06 2.325063e-05 -3.039531e-29)
(-8.398138e-06 4.355288e-05 1.425239e-31)
(-1.503855e-05 6.783185e-05 3.233434e-30)
(-2.542283e-05 9.713474e-05 2.621467e-29)
(-4.152863e-05 0.0001322342 3.352917e-28)
(-6.802342e-05 0.0001748405 7.925545e-28)
(-2.170834e-06 7.750955e-06 -2.575461e-30)
(-6.681471e-06 2.617314e-05 -4.387722e-29)
(-1.267382e-05 4.631015e-05 -6.862438e-29)
(-2.056545e-05 6.848946e-05 -1.953544e-28)
(-3.203165e-05 9.439536e-05 5.655173e-29)
(-4.912425e-05 0.0001257135 -1.19432e-27)
(-7.578627e-05 0.0001634818 -2.430198e-27)
(-3.16094e-06 9.251937e-06 3.005446e-29)
(-9.167878e-06 2.904126e-05 -2.347355e-29)
(-1.595911e-05 4.840352e-05 3.701132e-29)
(-2.431804e-05 6.86192e-05 8.909944e-34)
(-3.567976e-05 9.133132e-05 6.437208e-30)
(-5.264755e-05 0.0001193661 -2.43575e-28)
(-7.916733e-05 0.0001543386 -4.246867e-28)
(-3.887669e-06 1.018047e-05 3.615661e-29)
(-1.105467e-05 3.08091e-05 -3.928751e-31)
(-1.83458e-05 4.95298e-05 -1.275661e-28)
(-2.641717e-05 6.76292e-05 -7.577525e-29)
(-3.691309e-05 8.730655e-05 -1.890097e-28)
(-5.280843e-05 0.000112223 -3.226102e-28)
(-7.855524e-05 0.0001451859 9.941936e-29)
(-4.296193e-06 1.024076e-05 -2.547933e-32)
(-1.220553e-05 3.086277e-05 -5.711014e-29)
(-1.973779e-05 4.91791e-05 -1.126965e-28)
(-2.730059e-05 6.591853e-05 1.762466e-31)
(-3.646973e-05 8.303546e-05 1.518563e-29)
(-5.045273e-05 0.000104787 8.719953e-30)
(-7.445505e-05 0.0001362176 -4.039187e-32)
(-4.280165e-06 9.437653e-06 -3.972489e-29)
(-1.22609e-05 2.920981e-05 -5.358553e-31)
(-1.976808e-05 4.732444e-05 2.997703e-29)
(-2.674876e-05 6.340485e-05 2.975405e-29)
(-3.444868e-05 7.873322e-05 -6.687171e-29)
(-4.578468e-05 9.751814e-05 -9.426102e-28)
(-6.564948e-05 0.000126273 -1.333652e-27)
(-3.773015e-06 8.105781e-06 -3.916088e-29)
(-1.104661e-05 2.612714e-05 4.314847e-29)
(-1.824099e-05 4.383313e-05 4.984232e-29)
(-2.482383e-05 6.00391e-05 -3.995925e-30)
(-3.110215e-05 7.423465e-05 1.209642e-28)
(-3.95136e-05 9.007637e-05 -1.708612e-29)
(-5.478822e-05 0.0001148221 -3.076672e-29)
(-2.89878e-06 6.648523e-06 0)
(-8.926962e-06 2.23022e-05 3.01004e-30)
(-1.534634e-05 3.89222e-05 -1.018081e-28)
(-2.15473e-05 5.498265e-05 -1.181506e-28)
(-2.716427e-05 6.880695e-05 -3.360929e-31)
(-3.346111e-05 8.22792e-05 -8.322518e-29)
(-4.40674e-05 0.0001022534 -3.613756e-28)
(-2.016756e-06 5.47568e-06 0)
(-6.544493e-06 1.849722e-05 -1.720173e-29)
(-1.169084e-05 3.301658e-05 -7.051345e-29)
(-1.73362e-05 4.815416e-05 -5.714421e-29)
(-2.275017e-05 6.187598e-05 7.096476e-29)
(-2.789993e-05 7.427873e-05 1.080599e-28)
(-3.479964e-05 9.002533e-05 4.594922e-28)
(-1.410874e-06 4.845675e-06 -2.129671e-29)
(-4.598125e-06 1.555726e-05 0)
(-8.313675e-06 2.735389e-05 0)
(-1.287836e-05 4.037526e-05 -3.01488e-30)
(-1.795665e-05 5.347158e-05 -2.529746e-28)
(-2.2769e-05 6.542942e-05 -1.834922e-28)
(-2.806001e-05 7.819206e-05 2.20568e-28)
(-9.613448e-07 4.298384e-06 -1.972291e-29)
(-3.172812e-06 1.348389e-05 -6.133961e-30)
(-5.68598e-06 2.292846e-05 -7.627696e-30)
(-8.953662e-06 3.326033e-05 -8.364103e-29)
(-1.306213e-05 4.430931e-05 -2.141019e-28)
(-1.768844e-05 5.540514e-05 4.89022e-30)
(-2.26642e-05 6.645095e-05 -1.184562e-29)
(-6.152636e-07 3.676991e-06 0)
(-2.102522e-06 1.18012e-05 2.373474e-29)
(-3.846198e-06 1.991046e-05 0)
(-6.020029e-06 2.794168e-05 -1.652694e-29)
(-8.897284e-06 3.632398e-05 -2.272505e-29)
(-1.270708e-05 4.523358e-05 2.233515e-31)
(-1.745845e-05 5.46898e-05 1.601391e-28)
(-3.632161e-07 3.085635e-06 0)
(-1.223034e-06 1.017308e-05 -2.049198e-29)
(-2.387588e-06 1.741321e-05 2.159686e-29)
(-3.906061e-06 2.425346e-05 0)
(-5.81576e-06 3.063426e-05 -3.397184e-29)
(-8.326388e-06 3.69562e-05 -6.361051e-29)
(-1.190158e-05 4.39165e-05 -1.130379e-28)
(-1.864703e-07 2.60323e-06 0)
(-5.092936e-07 8.711591e-06 -5.883515e-29)
(-1.134967e-06 1.504071e-05 -2.536859e-31)
(-2.154439e-06 2.114808e-05 -6.342839e-29)
(-3.451216e-06 2.664845e-05 -2.863313e-29)
(-4.975346e-06 3.149651e-05 2.050925e-29)
(-6.892822e-06 3.599289e-05 -2.021533e-28)
(-6.71221e-08 2.21724e-06 1.452225e-29)
(9.303355e-09 7.495112e-06 -2.393696e-29)
(-1.36411e-07 1.294769e-05 1.21363e-31)
(-6.299915e-07 1.831363e-05 -2.640568e-29)
(-1.391254e-06 2.32822e-05 0)
(-2.281399e-06 2.764115e-05 0)
(-3.121061e-06 3.127275e-05 1.144459e-29)
(7.998057e-09 1.909578e-06 1.082461e-29)
(3.388053e-07 6.508335e-06 -1.939796e-29)
(5.773079e-07 1.121322e-05 1.593358e-29)
(5.631387e-07 1.58865e-05 1.53648e-29)
(3.369304e-07 2.032489e-05 0)
(3.335328e-08 2.437809e-05 0)
(-1.14821e-07 2.788737e-05 -3.663088e-29)
(5.648428e-08 1.650528e-06 -1.18895e-29)
(5.325366e-07 5.700241e-06 -2.663738e-29)
(1.033156e-06 9.789575e-06 -6.242601e-30)
(1.397714e-06 1.387711e-05 7.039471e-30)
(1.6347e-06 1.783823e-05 4.098545e-29)
(1.868622e-06 2.15719e-05 2.23903e-29)
(2.307229e-06 2.494886e-05 -4.892899e-30)
(8.817577e-08 1.422694e-06 -1.2837e-29)
(6.461722e-07 5.003118e-06 -2.995683e-30)
(1.301662e-06 8.593461e-06 6.209454e-30)
(1.91543e-06 1.219664e-05 6.503721e-30)
(2.498501e-06 1.576139e-05 0)
(3.137802e-06 1.917664e-05 -2.17038e-29)
(3.936661e-06 2.235721e-05 8.907368e-30)
(1.099867e-07 1.222684e-06 0)
(7.099908e-07 4.391082e-06 -5.977989e-30)
(1.448483e-06 7.558393e-06 -6.211802e-30)
(2.217741e-06 1.078556e-05 7.034594e-29)
(3.021276e-06 1.399314e-05 5.413262e-29)
(3.908944e-06 1.709992e-05 3.485948e-30)
(4.907134e-06 2.006377e-05 -6.415964e-30)
(1.266352e-07 1.042373e-06 -2.278342e-30)
(7.438456e-07 3.851748e-06 -2.983879e-30)
(1.520841e-06 6.654531e-06 0)
(2.378678e-06 9.547493e-06 -3.118724e-31)
(3.308282e-06 1.244046e-05 8.38666e-30)
(4.296193e-06 1.526202e-05 7.48384e-30)
(5.386591e-06 1.801328e-05 -1.376912e-29)
(1.364782e-07 8.824557e-07 6.244144e-30)
(7.515847e-07 3.376784e-06 -1.653907e-29)
(1.538198e-06 5.878934e-06 -1.574169e-29)
(2.422801e-06 8.456611e-06 -4.56008e-29)
(3.391906e-06 1.105444e-05 5.955545e-31)
(4.420822e-06 1.362813e-05 0)
(5.529982e-06 1.617125e-05 1.356772e-29)
(1.412766e-07 7.422812e-07 8.719213e-30)
(7.438614e-07 2.972075e-06 -4.90239e-30)
(1.521772e-06 5.198309e-06 5.760713e-30)
(2.402954e-06 7.497066e-06 0)
(3.35381e-06 9.826376e-06 -6.375077e-30)
(4.370604e-06 1.217136e-05 0)
(5.449554e-06 1.451411e-05 5.02124e-30)
(1.428991e-07 6.193457e-07 0)
(7.246668e-07 2.611003e-06 0)
(1.473253e-06 4.589823e-06 -1.252842e-29)
(2.314026e-06 6.636419e-06 0)
(3.228422e-06 8.735432e-06 -1.092523e-29)
(4.203223e-06 1.086916e-05 -4.954049e-30)
(5.224072e-06 1.30215e-05 4.220699e-30)
(1.402664e-07 5.146025e-07 -4.683029e-30)
(6.893846e-07 2.289438e-06 0)
(1.393556e-06 4.04437e-06 -2.29183e-30)
(2.18612e-06 5.873761e-06 8.284626e-30)
(3.047668e-06 7.764675e-06 -4.650251e-30)
(3.961282e-06 9.701665e-06 -8.40062e-30)
(4.908981e-06 1.166968e-05 -3.569718e-30)
(1.365484e-07 4.185368e-07 -2.799578e-30)
(6.506604e-07 2.005069e-06 -3.415712e-30)
(1.301554e-06 3.561728e-06 0)
(2.036225e-06 5.197088e-06 1.053544e-29)
(2.833715e-06 6.898793e-06 6.295942e-30)
(3.674074e-06 8.653693e-06 -1.354651e-29)
(4.536594e-06 1.044724e-05 -1.972187e-29)
(1.285737e-07 3.332357e-07 -3.422352e-30)
(6.032011e-07 1.750867e-06 -4.092835e-30)
(1.20109e-06 3.133926e-06 4.031435e-30)
(1.874839e-06 4.595633e-06 0)
(2.603224e-06 6.125551e-06 0)
(3.364291e-06 7.713327e-06 -2.989712e-30)
(4.136658e-06 9.355977e-06 5.512482e-29)
(1.19551e-07 2.578062e-07 -2.825363e-30)
(5.53679e-07 1.525558e-06 -3.562569e-30)
(1.098181e-06 2.753983e-06 3.326523e-30)
(1.710769e-06 4.060076e-06 0)
(2.370905e-06 5.435123e-06 6.218637e-30)
(3.058053e-06 6.871429e-06 7.264624e-34)
(3.758093e-06 8.377838e-06 -6.623234e-30)
(1.095475e-07 1.908118e-07 0)
(5.033854e-07 1.325081e-06 -2.904639e-30)
(9.961633e-07 2.415663e-06 2.863974e-30)
(1.549603e-06 3.582502e-06 0)
(2.144612e-06 4.818661e-06 -8.608573e-30)
(2.762022e-06 6.118785e-06 -1.260923e-29)
(3.38664e-06 7.492596e-06 -6.562593e-30)
(9.899678e-08 1.310684e-07 2.01093e-30)
(4.537924e-07 1.146147e-06 -1.489299e-30)
(8.973499e-07 2.113455e-06 7.909502e-31)
(1.395027e-06 3.155746e-06 -3.04558e-30)
(1.929358e-06 4.267689e-06 -3.008829e-30)
(2.483276e-06 5.446157e-06 -1.567513e-30)
(3.040532e-06 6.70081e-06 0)
(8.822681e-08 7.756016e-08 3.221707e-30)
(4.057088e-07 9.858057e-07 0)
(8.032033e-07 1.842572e-06 0)
(1.249183e-06 2.773335e-06 4.839675e-30)
(1.726885e-06 3.774352e-06 6.175774e-30)
(2.221841e-06 4.852062e-06 -1.161122e-30)
(2.720366e-06 6.000951e-06 0)
(7.759341e-08 2.925539e-08 1.256652e-30)
(3.599664e-07 8.412387e-07 -1.487257e-30)
(7.149416e-07 1.5986e-06 -1.500834e-30)
(1.114176e-06 2.429064e-06 -3.095452e-30)
(1.542863e-06 3.330086e-06 -1.92334e-30)
(1.993146e-06 4.31546e-06 0)
(2.440354e-06 5.370482e-06 -5.331414e-31)
(6.721633e-08 -1.458089e-08 -5.856234e-31)
(3.168371e-07 7.100121e-07 -3.510197e-30)
(6.327073e-07 1.377213e-06 -2.723287e-30)
(9.892699e-07 2.116907e-06 -2.185089e-30)
(1.372987e-06 2.92753e-06 0)
(1.775444e-06 3.82342e-06 3.929195e-31)
(2.175122e-06 4.792408e-06 6.364799e-32)
(5.723743e-08 -5.475589e-08 -1.910515e-31)
(2.764617e-07 5.898321e-07 -2.620404e-30)
(5.565962e-07 1.174602e-06 -3.290553e-30)
(8.743343e-07 1.831533e-06 -3.798743e-30)
(1.217674e-06 2.559933e-06 -3.060455e-30)
(1.576727e-06 3.374005e-06 6.849819e-31)
(1.93379e-06 4.264552e-06 3.146529e-30)
(4.775159e-08 -9.190872e-08 -5.044924e-31)
(2.390407e-07 4.787284e-07 -1.33942e-30)
(4.865066e-07 9.872981e-07 -6.088119e-31)
(7.682721e-07 1.56792e-06 0)
(1.073067e-06 2.224748e-06 -2.466791e-29)
(1.39417e-06 2.964333e-06 -3.114731e-29)
(1.714948e-06 3.778502e-06 -6.160845e-30)
(3.889094e-08 -1.266877e-07 -9.500677e-31)
(2.048559e-07 3.746244e-07 3.376254e-31)
(4.232725e-07 8.117945e-07 4.480257e-30)
(6.745773e-07 1.320925e-06 3.017878e-30)
(9.51385e-07 1.909319e-06 0)
(1.239562e-06 2.580304e-06 7.360275e-32)
(1.520981e-06 3.324677e-06 3.058628e-30)
(3.076438e-08 -1.597806e-07 -7.355641e-31)
(1.740597e-07 2.755013e-07 4.824102e-31)
(3.666694e-07 6.446892e-07 2.984249e-30)
(5.90479e-07 1.085899e-06 1.506541e-30)
(8.376944e-07 1.606713e-06 0)
(1.095311e-06 2.212013e-06 3.332165e-30)
(1.347146e-06 2.894792e-06 6.094868e-30)
(2.350673e-08 -1.918236e-07 5.878705e-31)
(1.470537e-07 1.79396e-07 6.333191e-31)
(3.174004e-07 4.828119e-07 1.490977e-30)
(5.176153e-07 8.58503e-07 1.504448e-30)
(7.390401e-07 1.314066e-06 0)
(9.697766e-07 1.856553e-06 0)
(1.195236e-06 2.48131e-06 0)
(1.736531e-08 -2.235163e-07 0)
(1.24485e-07 8.424343e-08 1.239178e-31)
(2.76421e-07 3.226238e-07 0)
(4.571713e-07 6.337588e-07 -3.208297e-30)
(6.565724e-07 1.025583e-06 -3.071871e-30)
(8.639368e-07 1.507067e-06 -3.037837e-30)
(1.065849e-06 2.076128e-06 -3.537329e-30)
(1.257396e-08 -2.556087e-07 1.817073e-31)
(1.070202e-07 -1.230602e-08 0)
(2.441834e-07 1.601422e-07 2.985459e-30)
(4.075784e-07 4.069816e-07 -2.159073e-29)
(5.894541e-07 7.359115e-07 -2.389421e-29)
(7.786201e-07 1.155824e-06 0)
(9.599011e-07 1.670652e-06 -6.347812e-31)
(9.508886e-09 -2.891109e-07 3.117242e-31)
(9.632053e-08 -1.132864e-07 0)
(2.251479e-07 -9.701473e-09 1.493996e-30)
(3.809016e-07 1.694154e-07 1.520543e-30)
(5.499357e-07 4.335899e-07 1.260866e-30)
(7.184416e-07 7.933647e-07 -6.03908e-31)
(8.794272e-07 1.25548e-06 6.662448e-31)
(8.751157e-09 -3.252483e-07 0)
(9.38793e-08 -2.225055e-07 1.894121e-30)
(2.199958e-07 -1.931537e-07 1.4933e-30)
(3.699624e-07 -8.667142e-08 -1.100173e-30)
(5.288307e-07 1.097729e-07 7.135545e-31)
(6.830098e-07 4.096163e-07 -7.173726e-31)
(8.257189e-07 8.203131e-07 3.911564e-32)
(1.123784e-08 -3.657742e-07 0)
(1.028796e-07 -3.451047e-07 5.299824e-31)
(2.340183e-07 -3.984029e-07 -5.144283e-31)
(3.843125e-07 -3.71543e-07 3.008245e-31)
(5.366022e-07 -2.471504e-07 2.240558e-30)
(6.774743e-07 -8.196174e-09 3.002382e-30)
(8.014287e-07 3.529272e-07 -8.225736e-31)
(1.851384e-08 -4.129647e-07 0)
(1.281932e-07 -4.88338e-07 0)
(2.744258e-07 -6.373549e-07 -6.173454e-31)
(4.317697e-07 -7.001878e-07 1.213225e-30)
(5.800867e-07 -6.533628e-07 4.037175e-32)
(7.068601e-07 -4.759098e-07 0)
(8.093972e-07 -1.60983e-07 0)
(3.326247e-08 -4.706407e-07 4.923488e-31)
(1.776583e-07 -6.634934e-07 -5.934177e-31)
(3.523904e-07 -9.275139e-07 -1.80365e-30)
(5.236914e-07 -1.093914e-06 -2.099326e-31)
(6.683871e-07 -1.130848e-06 -3.889775e-32)
(7.770554e-07 -1.013685e-06 2.993751e-30)
(8.521853e-07 -7.383265e-07 2.074087e-35)
(6.005002e-08 -5.449569e-07 3.23846e-32)
(2.651575e-07 -8.885165e-07 -6.642342e-31)