/*--------------------------------*- C++ -*----------------------------------*\
| =========                 |                                                 |
| \\      /  F ield         | OpenFOAM: The Open Source CFD Toolbox           |
|  \\    /   O peration     | Version:  2206                                  |
|   \\  /    A nd           | Website:  www.openfoam.com                      |
|    \\/     M anipulation  |                                                 |
\*---------------------------------------------------------------------------*/
FoamFile
{
    version     2.0;
    format      ascii;
    arch        "LSB;label=32;scalar=64";
    class       volVectorField;
    location    "2.4";
    object      U.a_0;
}
// * * * * * * * * * * * * * * * * * * * * * * * * * * * * * * * * * * * * * //

dimensions      [0 1 -1 0 0 0 0];

internalField   nonuniform List<vector> 
13078
(
(1.628255e-05 -0.0001451899 2.989323e-27)
(2.740886e-06 -6.564805e-05 2.834686e-32)
(1.828869e-07 -3.540482e-05 -6.520827e-29)
(-2.261939e-07 -2.152787e-05 0)
(-3.336845e-07 -1.592633e-05 -1.188388e-29)
(-3.903096e-07 -1.2488e-05 -1.156318e-29)
(-4.283716e-07 -9.903986e-06 -1.159746e-29)
(-5.327948e-05 -5.494257e-05 0)
(-2.751624e-05 -4.34041e-05 -4.031567e-32)
(-9.561726e-06 -2.677499e-05 0)
(-4.266843e-06 -1.929483e-05 0)
(-2.469075e-06 -1.51448e-05 7.190379e-34)
(-1.661968e-06 -1.206858e-05 4.94836e-34)
(-1.256717e-06 -9.652482e-06 1.261225e-33)
(-1.670282e-05 -1.264156e-05 1.255921e-30)
(-1.456599e-05 -1.890854e-05 2.329961e-31)
(-8.985451e-06 -1.776552e-05 1.357055e-29)
(-5.538917e-06 -1.551291e-05 2.30946e-29)
(-3.604758e-06 -1.305009e-05 1.154079e-29)
(-2.522904e-06 -1.082273e-05 0)
(-1.89725e-06 -8.85677e-06 -6.604814e-35)
(-5.091537e-06 -4.551953e-06 -1.085226e-31)
(-7.41434e-06 -9.450547e-06 7.673071e-31)
(-6.661672e-06 -1.161828e-05 2.26012e-30)
(-5.120628e-06 -1.157847e-05 1.461322e-30)
(-3.808576e-06 -1.053207e-05 1.525901e-33)
(-2.887414e-06 -9.158176e-06 0)
(-2.268627e-06 -7.715058e-06 -4.749542e-34)
(-2.021437e-06 -2.353111e-06 -2.950222e-31)
(-4.138608e-06 -5.5395e-06 -6.297574e-31)
(-4.573598e-06 -7.596916e-06 8.16749e-31)
(-4.151927e-06 -8.330159e-06 -2.376118e-32)
(-3.501541e-06 -8.151756e-06 -1.394195e-29)
(-2.888086e-06 -7.425995e-06 -2.464249e-35)
(-2.402189e-06 -6.433832e-06 1.163239e-29)
(-9.247059e-07 -1.45991e-06 0)
(-2.399127e-06 -3.469162e-06 7.401108e-31)
(-3.105236e-06 -5.078487e-06 -7.461679e-31)
(-3.207425e-06 -5.932023e-06 7.250741e-31)
(-3.002229e-06 -6.120493e-06 1.495687e-30)
(-2.69127e-06 -5.819299e-06 -1.174743e-29)
(-2.374797e-06 -5.164814e-06 -2.333209e-29)
(-4.991944e-07 -1.028686e-06 0)
(-1.489096e-06 -2.310086e-06 5.926851e-31)
(-2.153477e-06 -3.478631e-06 -1.128489e-29)
(-2.458429e-06 -4.219791e-06 -1.198049e-29)
(-2.510044e-06 -4.50976e-06 2.229384e-30)
(-2.417597e-06 -4.403668e-06 1.48224e-30)
(-2.262501e-06 -3.984192e-06 0)
(-3.122203e-07 -7.855209e-07 -9.862338e-31)
(-1.001645e-06 -1.60912e-06 5.985285e-31)
(-1.56218e-06 -2.429826e-06 6.438411e-31)
(-1.926058e-06 -3.002633e-06 0)
(-2.105779e-06 -3.265985e-06 1.542525e-30)
(-2.15279e-06 -3.22e-06 1.486509e-30)
(-2.11988e-06 -2.910605e-06 1.48454e-30)
(-2.204429e-07 -6.314583e-07 3.234874e-32)
(-7.32236e-07 -1.151018e-06 -1.262772e-30)
(-1.199767e-06 -1.714842e-06 8.320582e-31)
(-1.563342e-06 -2.116578e-06 1.50557e-30)
(-1.803214e-06 -2.300689e-06 4.521721e-30)
(-1.93513e-06 -2.246472e-06 1.488351e-30)
(-1.988297e-06 -1.971956e-06 0)
(-1.726154e-07 -5.246496e-07 1.004523e-30)
(-5.810356e-07 -8.29437e-07 -1.236503e-30)
(-9.811186e-07 -1.198338e-06 -6.357351e-31)
(-1.327886e-06 -1.448618e-06 1.952756e-30)
(-1.593844e-06 -1.537763e-06 -3.871938e-32)
(-1.776376e-06 -1.440309e-06 0)
(-1.888743e-06 -1.159605e-06 0)
(-1.475605e-07 -4.451203e-07 0)
(-4.977821e-07 -5.888915e-07 0)
(-8.5434e-07 -8.049347e-07 -1.304501e-30)
(-1.184678e-06 -9.250758e-07 1.901341e-30)
(-1.462302e-06 -9.18549e-07 4.017885e-32)
(-1.676062e-06 -7.615562e-07 0)
(-1.829506e-06 -4.504828e-07 0)
(-1.357257e-07 -3.823328e-07 0)
(-4.55909e-07 -3.983552e-07 1.266862e-30)
(-7.881653e-07 -4.8957e-07 -1.246719e-30)
(-1.108624e-06 -4.973621e-07 -3.456155e-30)
(-1.393758e-06 -3.997065e-07 -5.164543e-32)
(-1.629015e-06 -1.76548e-07 0)
(-1.812437e-06 1.784608e-07 1.498166e-30)
(-1.323017e-07 -3.297611e-07 0)
(-4.410025e-07 -2.390732e-07 -2.842164e-31)
(-7.638921e-07 -2.243021e-07 -1.489134e-30)
(-1.082589e-06 -1.329483e-07 -1.875906e-30)
(-1.376244e-06 5.042828e-08 1.46492e-30)
(-1.629126e-06 3.417642e-07 -1.44338e-30)
(-1.836543e-06 7.481571e-07 3.88489e-32)
(-1.346105e-07 -2.835572e-07 9.915805e-31)
(-4.450605e-07 -9.935197e-08 0)
(-7.701152e-07 9.281143e-09 -1.489551e-30)
(-1.094981e-06 1.905729e-07 -1.514334e-30)
(-1.400696e-06 4.550501e-07 2.859327e-30)
(-1.670822e-06 8.148583e-07 -1.371667e-30)
(-1.899747e-06 1.276829e-06 1.401429e-30)
(-1.412018e-07 -2.41089e-07 9.125603e-31)
(-4.633133e-07 2.869395e-08 0)
(-7.9926e-07 2.236591e-07 -2.975879e-30)
(-1.133243e-06 4.885986e-07 1.988052e-29)
(-1.454484e-06 8.311975e-07 2.56939e-29)
(-1.7485e-06 1.260053e-06 0)
(-1.999888e-06 1.78027e-06 -1.410782e-30)
(-1.512647e-07 -2.00503e-07 0)
(-4.934405e-07 1.50746e-07 1.100369e-30)
(-8.495692e-07 4.281237e-07 0)
(-1.204213e-06 7.724559e-07 1.858869e-30)
(-1.547221e-06 1.190693e-06 3.053175e-30)
(-1.862644e-06 1.69089e-06 3.015783e-30)
(-2.13623e-06 2.27196e-06 1.675314e-30)
(-1.64305e-07 -1.603629e-07 0)
(-5.335048e-07 2.711057e-07 1.99761e-30)
(-9.16277e-07 6.296881e-07 -1.485165e-30)
(-1.296842e-06 1.053453e-06 -1.49636e-30)
(-1.666967e-06 1.548483e-06 0)
(-2.008961e-06 2.120072e-06 0)
(-2.307484e-06 2.764216e-06 0)
(-1.801975e-07 -1.196378e-07 1.358683e-30)
(-5.830113e-07 3.930851e-07 1.388051e-31)
(-9.990615e-07 8.340138e-07 -2.971325e-30)
(-1.411964e-06 1.338587e-06 -1.497554e-30)
(-1.81444e-06 1.912426e-06 0)
(-2.187305e-06 2.557852e-06 -1.753564e-30)
(-2.513717e-06 3.268141e-06 -6.032621e-30)
(-1.989547e-07 -7.735481e-08 1.221793e-30)
(-6.41883e-07 5.195831e-07 8.992941e-32)
(-1.097821e-06 1.045968e-06 -4.458678e-30)
(-1.549359e-06 1.634613e-06 -2.997836e-30)
(-1.989692e-06 2.290467e-06 0)
(-2.398206e-06 3.013481e-06 1.146869e-30)
(-2.755871e-06 3.794145e-06 -3.023807e-30)
(-2.207421e-07 -3.2673e-08 5.818333e-31)
(-7.105393e-07 6.532013e-07 1.34701e-30)
(-1.213148e-06 1.269905e-06 7.010094e-31)
(-1.709009e-06 1.947448e-06 0)
(-2.186611e-06 2.687037e-06 2.445558e-29)
(-2.635107e-06 3.492287e-06 3.081948e-29)
(-3.034416e-06 4.352209e-06 6.082818e-30)
(-2.458593e-07 1.529349e-08 -1.771935e-31)
(-7.900685e-07 7.965217e-07 1.791382e-30)
(-1.347211e-06 1.510134e-06 2.545761e-30)
(-1.896307e-06 2.28321e-06 3.581197e-30)
(-2.424142e-06 3.111188e-06 3.028591e-30)
(-2.91912e-06 4.005524e-06 1.94718e-30)
(-3.357337e-06 4.952923e-06 -4.173495e-30)
(-2.748596e-07 6.724997e-08 0)
(-8.819688e-07 9.519159e-07 1.800698e-30)
(-1.501887e-06 1.770867e-06 1.820774e-30)
(-2.111293e-06 2.648121e-06 8.156291e-31)
(-2.695148e-06 3.577492e-06 0)
(-3.243081e-06 4.570356e-06 1.762953e-30)
(-3.726498e-06 5.609087e-06 6.254988e-32)
(-3.085131e-07 1.239717e-07 -1.643631e-31)
(-9.884267e-07 1.121698e-06 0)
(-1.680873e-06 2.056141e-06 0)
(-2.359523e-06 3.048274e-06 2.929711e-30)
(-3.007578e-06 4.090146e-06 2.614441e-30)
(-3.614735e-06 5.192021e-06 0)
(-4.149058e-06 6.332549e-06 8.354295e-31)
(-3.478193e-07 1.861915e-07 9.895438e-32)
(-1.11255e-06 1.308136e-06 0)
(-1.889063e-06 2.370021e-06 0)
(-2.647438e-06 3.48973e-06 -2.993431e-30)
(-3.367967e-06 4.657237e-06 -3.358649e-30)
(-4.032607e-06 5.874325e-06 4.735423e-31)
(-4.624445e-06 7.129867e-06 0)
(-3.942419e-07 2.544999e-07 2.919591e-31)
(-1.258545e-06 1.513294e-06 1.480742e-30)
(-2.133198e-06 2.716421e-06 1.736714e-30)
(-2.984293e-06 3.978618e-06 3.005995e-30)
(-3.790435e-06 5.287295e-06 3.097079e-30)
(-4.530695e-06 6.632941e-06 1.96586e-31)
(-5.18613e-06 8.019644e-06 0)
(-4.496043e-07 3.294037e-07 0)
(-1.431686e-06 1.738778e-06 -5.712252e-31)
(-2.421299e-06 3.098529e-06 6.025049e-31)
(-3.379427e-06 4.520161e-06 0)
(-4.282088e-06 5.988458e-06 5.698769e-30)
(-5.105619e-06 7.490202e-06 1.233524e-29)
(-5.831789e-06 9.028148e-06 6.399614e-30)
(-5.164697e-07 4.111117e-07 -7.326427e-31)
(-1.639099e-06 1.985514e-06 -9.863296e-31)
(-2.764027e-06 3.518472e-06 8.344428e-31)
(-3.845972e-06 5.118237e-06 0)
(-4.857951e-06 6.766919e-06 -6.091253e-30)
(-5.774005e-06 8.447197e-06 -4.38752e-34)
(-6.57634e-06 1.01584e-05 6.439529e-30)
(-5.979946e-07 4.995296e-07 -1.109154e-30)
(-1.889818e-06 2.253348e-06 -1.246718e-30)
(-3.175267e-06 3.976966e-06 1.279062e-30)
(-4.400439e-06 5.77493e-06 0)
(-5.535236e-06 7.626907e-06 0)
(-6.551209e-06 9.510595e-06 -6.748165e-31)
(-7.422814e-06 1.140873e-05 -5.103377e-29)
(-6.990435e-07 5.940489e-07 -2.566218e-30)
(-2.196848e-06 2.541047e-06 -3.246852e-30)
(-3.673357e-06 4.472827e-06 0)
(-5.064005e-06 6.489995e-06 -4.629678e-30)
(-6.335746e-06 8.569784e-06 -6.133944e-30)
(-7.461387e-06 1.068433e-05 4.103898e-30)
(-8.421145e-06 1.279894e-05 1.901141e-29)
(-8.212579e-07 6.924223e-07 -1.862159e-30)
(-2.570388e-06 2.841533e-06 0)
(-4.281048e-06 5.002405e-06 -5.003787e-30)
(-5.863803e-06 7.260696e-06 -1.078437e-30)
(-7.284443e-06 9.593663e-06 -1.647407e-30)
(-8.517785e-06 1.196843e-05 -2.845178e-30)
(-9.549608e-06 1.434434e-05 -1.024865e-30)
(-9.757172e-07 7.89029e-07 0)
(-3.041966e-06 3.153161e-06 0)
(-5.033594e-06 5.559233e-06 -5.074191e-30)
(-6.838408e-06 8.081207e-06 0)
(-8.418632e-06 1.069443e-05 -4.306844e-30)
(-9.752081e-06 1.336103e-05 -1.90081e-30)
(-1.083259e-05 1.60328e-05 1.448956e-30)
(-1.177967e-06 8.903019e-07 -5.292502e-30)
(-3.629425e-06 3.46519e-06 6.663328e-31)
(-5.961503e-06 6.122057e-06 1.644001e-30)
(-8.038154e-06 8.941496e-06 0)
(-9.791039e-06 1.186606e-05 -2.728101e-30)
(-1.121038e-05 1.485841e-05 0)
(-1.230688e-05 1.786115e-05 -1.075904e-29)
(-1.441042e-06 9.884612e-07 -3.62446e-30)
(-4.379835e-06 3.764963e-06 4.389401e-30)
(-7.128655e-06 6.677107e-06 1.045235e-29)
(-9.526215e-06 9.809107e-06 1.094372e-29)
(-1.147381e-05 1.309822e-05 3.158055e-30)
(-1.295542e-05 1.645746e-05 6.339489e-30)
(-1.400806e-05 1.983728e-05 -6.422305e-30)
(-1.784176e-06 1.078179e-06 1.133569e-30)
(-5.361433e-06 4.062008e-06 1.467982e-30)
(-8.630975e-06 7.219587e-06 1.096659e-29)
(-1.14214e-05 1.069097e-05 2.555849e-32)
(-1.357397e-05 1.437943e-05 -1.663691e-29)
(-1.507637e-05 1.815244e-05 1.277664e-29)
(-1.599508e-05 2.195819e-05 2.591241e-29)
(-2.229773e-06 1.151646e-06 -1.13097e-30)
(-6.623902e-06 4.327507e-06 -1.467232e-30)
(-1.056093e-05 7.758331e-06 -2.522746e-31)
(-1.380342e-05 1.156544e-05 -5.110002e-29)
(-1.619576e-05 1.56681e-05 -6.463606e-29)
(-1.767445e-05 1.993681e-05 -8.975557e-30)
(-1.834066e-05 2.421194e-05 0)
(-2.79936e-06 1.202405e-06 0)
(-8.223095e-06 4.545574e-06 0)
(-1.299111e-05 8.26058e-06 6.782004e-30)
(-1.679304e-05 1.241544e-05 1.873845e-29)
(-1.944686e-05 1.69732e-05 7.073013e-29)
(-2.087341e-05 2.176286e-05 5.980224e-29)
(-2.121681e-05 2.670268e-05 0)
(-3.504412e-06 1.226273e-06 -2.250185e-30)
(-1.017795e-05 4.719257e-06 2.927285e-30)
(-1.59349e-05 8.756262e-06 6.008663e-30)
(-2.041517e-05 1.334827e-05 0)
(-2.342359e-05 1.835169e-05 1.431668e-29)
(-2.490717e-05 2.384506e-05 -1.583011e-29)
(-2.518461e-05 3.021523e-05 -4.203246e-29)
(-4.335582e-06 1.238383e-06 -4.906451e-30)
(-1.243361e-05 4.902693e-06 2.9277e-30)
(-1.932456e-05 9.328265e-06 -8.75502e-30)
(-2.463138e-05 1.440391e-05 0)
(-2.820611e-05 2.002342e-05 2.354081e-29)
(-3.039891e-05 2.677854e-05 -1.284448e-28)
(-3.147243e-05 3.581621e-05 -3.203742e-28)
(-5.249037e-06 1.286807e-06 -5.89569e-30)
(-1.486591e-05 5.195191e-06 -7.068225e-30)
(-2.304097e-05 1.006454e-05 -1.007621e-29)
(-2.939417e-05 1.564319e-05 -1.303818e-29)
(-3.433469e-05 2.229465e-05 -3.444115e-29)
(-3.865414e-05 3.134861e-05 -6.276565e-29)
(-4.191647e-05 4.431426e-05 -1.924309e-28)
(-6.148013e-06 1.423956e-06 0)
(-1.72749e-05 5.667251e-06 4.228775e-30)
(-2.686283e-05 1.096687e-05 1.129849e-29)
(-3.489606e-05 1.730139e-05 7.406079e-30)
(-4.246065e-05 2.565745e-05 -4.023006e-29)
(-5.014907e-05 3.769654e-05 -3.539794e-29)
(-5.767082e-05 5.53197e-05 0)
(-6.942001e-06 1.678808e-06 1.020481e-29)
(-1.943778e-05 6.359657e-06 7.145541e-31)
(-3.06308e-05 1.212616e-05 -1.243857e-29)
(-4.115737e-05 1.953501e-05 3.344969e-29)
(-5.228113e-05 2.987556e-05 -5.107332e-29)
(-6.450768e-05 4.489651e-05 -3.053983e-30)
(-7.844169e-05 6.68883e-05 6.538599e-30)
(-7.627464e-06 2.090767e-06 8.885878e-30)
(-2.103888e-05 7.250489e-06 -2.91196e-30)
(-3.389191e-05 1.352015e-05 0)
(-4.719873e-05 2.206728e-05 5.878222e-30)
(-6.198404e-05 3.420314e-05 5.913016e-29)
(-7.856843e-05 5.136212e-05 5.312083e-30)
(-9.85388e-05 7.650958e-05 -2.205282e-28)
(-7.792325e-06 2.551891e-06 -1.138087e-29)
(-2.184955e-05 8.338111e-06 5.825343e-30)
(-3.589856e-05 1.501061e-05 7.031127e-30)
(-5.121008e-05 2.434696e-05 -1.181067e-28)
(-6.85543e-05 3.750117e-05 6.838311e-30)
(-8.864607e-05 5.603551e-05 9.72186e-29)
(-0.000112708 8.315722e-05 2.234087e-28)
(-7.498232e-06 3.079024e-06 -1.17071e-29)
(-2.146859e-05 9.460537e-06 0)
(-3.584536e-05 1.637144e-05 1.396813e-29)
(-5.16662e-05 2.600634e-05 1.82898e-29)
(-7.019596e-05 3.948949e-05 -1.217383e-28)
(-9.207034e-05 5.843331e-05 -2.468952e-28)
(-0.0001183183 8.739226e-05 2.231672e-28)
(-6.784741e-06 3.57721e-06 0)
(-1.977916e-05 1.04489e-05 1.138748e-29)
(-3.322317e-05 1.741272e-05 1.365529e-29)
(-4.837743e-05 2.702943e-05 1.701059e-29)
(-6.651513e-05 4.025939e-05 9.732381e-29)
(-8.808069e-05 5.938126e-05 -3.129025e-28)
(-0.0001134231 8.949066e-05 -4.847847e-28)
(-5.727149e-06 3.924894e-06 0)
(-1.71221e-05 1.129052e-05 7.635093e-31)
(-2.849884e-05 1.823685e-05 1.515469e-30)
(-4.154161e-05 2.738869e-05 -5.065257e-33)
(-5.8041e-05 4.049569e-05 3.264538e-29)
(-7.658162e-05 5.992448e-05 4.12938e-29)
(-9.794307e-05 9.166844e-05 -6.950569e-28)
(-4.583967e-06 4.232011e-06 -9.160754e-30)
(-1.383159e-05 1.207232e-05 1.772935e-30)
(-2.275798e-05 1.898212e-05 -5.069699e-31)
(-3.281029e-05 2.766522e-05 -6.117743e-32)
(-4.553716e-05 4.062455e-05 5.378809e-32)
(-5.984883e-05 6.144809e-05 1.17667e-31)
(-7.378856e-05 9.499953e-05 1.176934e-28)
(-3.353431e-06 4.52429e-06 -1.232518e-29)
(-1.024702e-05 1.284453e-05 1.082548e-29)
(-1.675216e-05 1.985104e-05 -1.110431e-29)
(-2.336281e-05 2.827798e-05 2.394272e-30)
(-3.122806e-05 4.159426e-05 -2.904402e-29)
(-3.872488e-05 6.417336e-05 -2.566651e-29)
(-4.390589e-05 0.0001018967 -7.276813e-29)
(-2.036963e-06 4.765855e-06 -2.453313e-31)
(-6.456209e-06 1.350388e-05 1.226617e-29)
(-1.052108e-05 2.084497e-05 -1.064046e-29)
(-1.408048e-05 2.963116e-05 -3.30593e-29)
(-1.688652e-05 4.37512e-05 -3.197963e-29)
(-1.657416e-05 6.938437e-05 -2.03477e-33)
(-1.006947e-05 0.0001144851 7.204657e-29)
(-7.302156e-07 4.92603e-06 -4.000261e-31)
(-2.751372e-06 1.406639e-05 -9.871968e-30)
(-4.444746e-06 2.195552e-05 3.448429e-31)
(-5.138422e-06 3.165344e-05 -3.170476e-29)
(-3.265765e-06 4.817916e-05 -1.398803e-29)
(5.147993e-06 7.938336e-05 -1.656371e-31)
(2.534788e-05 0.0001340174 4.574912e-29)
(5.072408e-07 4.958315e-06 4.094509e-30)
(7.688457e-07 1.436584e-05 -8.981798e-30)
(1.233997e-06 2.316429e-05 1.057479e-29)
(3.237464e-06 3.482826e-05 -1.021746e-29)
(9.985915e-06 5.57074e-05 8.255294e-29)
(2.672817e-05 9.510836e-05 3.874871e-30)
(5.916146e-05 0.000160776 -4.632668e-28)
(1.512558e-06 4.85887e-06 5.849662e-30)
(3.703164e-06 1.442755e-05 1.050618e-29)
(6.363722e-06 2.453182e-05 2.279956e-29)
(1.145326e-05 3.934751e-05 -1.52199e-29)
(2.336809e-05 6.670784e-05 -2.300265e-29)
(4.719551e-05 0.0001151695 3.739982e-30)
(8.728672e-05 0.0001890652 -1.414798e-27)
(2.139807e-06 4.767444e-06 2.07666e-30)
(5.685946e-06 1.472111e-05 3.187363e-31)
(1.022877e-05 2.64422e-05 9.548541e-30)
(1.827808e-05 4.544691e-05 -1.891901e-29)
(3.37301e-05 7.924753e-05 -8.109659e-29)
(5.957952e-05 0.000133083 -1.86442e-29)
(9.98008e-05 0.000210138 -1.859726e-31)
(2.321947e-06 4.637048e-06 6.121131e-35)
(6.593354e-06 1.521218e-05 -2.092286e-31)
(1.232887e-05 2.936388e-05 -6.736536e-31)
(2.186778e-05 5.273801e-05 -1.633014e-30)
(3.76599e-05 9.106888e-05 -1.065853e-29)
(6.06185e-05 0.0001458407 1.810159e-28)
(9.273147e-05 0.0002185161 -2.920393e-28)
(2.173858e-06 4.569459e-06 3.961048e-31)
(6.466695e-06 1.587104e-05 2.128449e-31)
(1.236808e-05 3.257944e-05 -8.426745e-31)
(2.123948e-05 5.945509e-05 -2.90852e-29)
(3.397805e-05 9.979424e-05 -6.238722e-29)
(5.040784e-05 0.0001530211 2.186519e-28)
(7.172936e-05 0.0002192499 4.655755e-28)
(1.746045e-06 4.517794e-06 -1.579309e-30)
(5.437346e-06 1.671145e-05 -8.215445e-30)
(1.024429e-05 3.550952e-05 -1.279104e-29)
(1.637263e-05 6.437535e-05 -1.052378e-29)
(2.355029e-05 0.0001047717 -2.387048e-28)
(3.116933e-05 0.0001553958 -5.504246e-28)
(3.90601e-05 0.0002154862 4.112644e-28)
(1.088094e-06 4.563227e-06 1.048351e-30)
(3.529839e-06 1.780393e-05 2.815244e-30)
(6.104055e-06 3.802296e-05 -1.645402e-30)
(8.132718e-06 6.747342e-05 -6.881049e-29)
(8.703918e-06 0.0001068213 1.118408e-28)
(6.876341e-06 0.0001550714 2.114371e-28)
(7.67679e-07 0.0002119607 2.206883e-29)
(3.829829e-07 4.758378e-06 1.078406e-30)
(1.172695e-06 1.923345e-05 9.504761e-30)
(1.112863e-06 4.032476e-05 3.185377e-29)
(-7.957967e-07 6.934677e-05 3.104191e-29)
(-5.669836e-06 0.0001069296 9.556196e-29)
(-1.493909e-05 0.0001529782 3.476117e-28)
(-3.209096e-05 0.0002088515 6.24726e-28)
(-2.675323e-07 5.314298e-06 -8.129871e-33)
(-1.175905e-06 2.120333e-05 -5.485363e-30)
(-3.578399e-06 4.258436e-05 7.074307e-30)
(-8.377765e-06 7.022176e-05 -9.256589e-31)
(-1.675051e-05 0.0001050599 3.809248e-29)
(-3.061269e-05 0.0001478543 8.104485e-29)
(-5.439345e-05 0.000201454 1.387404e-31)
(-1.026202e-06 6.449571e-06 4.207673e-30)
(-3.634459e-06 2.385815e-05 -1.875462e-29)
(-7.957704e-06 4.498167e-05 2.403988e-30)
(-1.457838e-05 7.054731e-05 3.951917e-29)
(-2.489403e-05 0.0001018825 5.363713e-30)
(-4.090777e-05 0.0001404714 -8.593991e-30)
(-6.77325e-05 0.0001890886 1.506823e-27)
(-1.936925e-06 7.929684e-06 6.48174e-30)
(-6.212773e-06 2.689874e-05 7.884719e-31)
(-1.21617e-05 4.780779e-05 -1.955554e-32)
(-2.006339e-05 7.108177e-05 2.211465e-28)
(-3.145148e-05 9.869632e-05 3.273384e-28)
(-4.833824e-05 0.0001329561 -3.414983e-29)
(-7.503447e-05 0.0001756783 -8.378595e-28)
(-2.852494e-06 9.490212e-06 1.472908e-29)
(-8.598542e-06 2.986497e-05 -4.283729e-30)
(-1.537532e-05 4.990284e-05 2.069028e-29)
(-2.377251e-05 7.099856e-05 1.487695e-32)
(-3.504054e-05 9.505076e-05 1.091811e-28)
(-5.169439e-05 0.0001254533 2.153391e-28)
(-7.799893e-05 0.0001645636 -2.286491e-30)
(-3.51507e-06 1.045927e-05 1.477332e-29)
(-1.039559e-05 3.168424e-05 -6.41702e-30)
(-1.768171e-05 5.099444e-05 5.690189e-29)
(-2.579003e-05 6.978543e-05 4.221662e-29)
(-3.615448e-05 9.050729e-05 -7.677879e-29)
(-5.162581e-05 0.000117346 -1.980998e-28)
(-7.68933e-05 0.0001538264 5.93431e-29)
(-3.884666e-06 1.053068e-05 -4.324023e-31)
(-1.147836e-05 3.173369e-05 -2.891648e-29)
(-1.899224e-05 5.057345e-05 -2.6647e-29)
(-2.657161e-05 6.787116e-05 2.978055e-30)
(-3.556266e-05 8.580643e-05 1.927372e-28)
(-4.902619e-05 0.0001091176 1.440357e-28)
(-7.231872e-05 0.0001435932 -6.599628e-31)
(-3.865668e-06 9.710122e-06 -2.208183e-29)
(-1.149585e-05 3.00272e-05 -1.144118e-29)
(-1.894854e-05 4.861863e-05 4.479356e-29)
(-2.591682e-05 6.517033e-05 -3.350004e-30)
(-3.340048e-05 8.115128e-05 -4.236638e-31)
(-4.415731e-05 0.000101173 -5.194683e-29)
(-6.320119e-05 0.000132405 4.389452e-29)
(-3.387251e-06 8.339925e-06 -2.370328e-29)
(-1.02788e-05 2.684704e-05 5.430397e-29)
(-1.736619e-05 4.499061e-05 3.262559e-29)
(-2.390988e-05 6.162017e-05 -3.662466e-29)
(-2.999747e-05 7.633979e-05 -3.99975e-32)
(-3.78532e-05 9.314063e-05 -1.800413e-28)
(-5.223433e-05 0.0001199041 -3.456917e-28)
(-2.555019e-06 6.829031e-06 0)
(-8.189298e-06 2.2887e-05 2.778433e-29)
(-1.44498e-05 3.990175e-05 7.771185e-35)
(-2.059387e-05 5.635336e-05 -2.577015e-30)
(-2.605097e-05 7.064047e-05 -5.58489e-30)
(-3.185422e-05 8.487475e-05 5.48079e-29)
(-4.154783e-05 0.0001064581 -1.152545e-28)
(-1.705858e-06 5.59336e-06 0)
(-5.862884e-06 1.891684e-05 -1.738745e-29)
(-1.082547e-05 3.377666e-05 -2.251028e-29)
(-1.63831e-05 4.927821e-05 9.933224e-31)
(-2.164522e-05 6.343603e-05 3.575921e-29)
(-2.636355e-05 7.64905e-05 4.460142e-29)
(-3.247266e-05 9.346641e-05 1.218231e-28)
(-1.110747e-06 4.912538e-06 -1.194959e-29)
(-3.96811e-06 1.581207e-05 0)
(-7.514321e-06 2.788384e-05 0)
(-1.196544e-05 4.12194e-05 -4.696366e-29)
(-1.688816e-05 5.472159e-05 -2.104235e-28)
(-2.136876e-05 6.725996e-05 -7.961197e-29)
(-2.606059e-05 8.098427e-05 1.468627e-28)
(-6.770516e-07 4.346603e-06 -1.105339e-29)
(-2.59804e-06 1.366016e-05 -6.097666e-30)
(-4.96679e-06 2.327929e-05 -7.521497e-30)
(-8.125541e-06 3.383161e-05 -8.24066e-29)
(-1.209593e-05 4.520336e-05 -1.658333e-28)
(-1.648069e-05 5.680995e-05 7.091685e-29)
(-2.105125e-05 6.86234e-05 -4.729837e-29)
(-3.50557e-07 3.725459e-06 0)
(-1.57403e-06 1.194881e-05 1.330672e-29)
(-3.197643e-06 2.015425e-05 0)
(-5.292616e-06 2.829972e-05 -1.602584e-29)
(-8.075346e-06 3.689519e-05 -2.192868e-29)
(-1.171641e-05 4.618457e-05 3.702825e-30)
(-1.621672e-05 5.62481e-05 -5.84732e-29)
(-1.150347e-07 3.129157e-06 0)
(-7.314199e-07 1.030181e-05 -1.073284e-29)
(-1.79863e-06 1.761584e-05 1.177805e-29)
(-3.268564e-06 2.451454e-05 0)
(-5.12039e-06 3.099165e-05 -3.249632e-29)
(-7.535549e-06 3.753004e-05 -7.441844e-29)
(-1.097151e-05 4.489212e-05 -1.443618e-28)
(4.694555e-08 2.641867e-06 0)
(-5.015566e-08 8.823421e-06 -3.164736e-29)
(-5.91083e-07 1.521299e-05 -2.419263e-31)
(-1.581197e-06 2.136704e-05 -4.461068e-29)
(-2.849493e-06 2.691205e-05 -2.713686e-29)
(-4.32549e-06 3.185658e-05 1.055372e-29)
(-6.18364e-06 3.65452e-05 -1.921359e-28)
(1.497071e-07 2.251e-06 7.896828e-30)
(4.345443e-07 7.592776e-06 -1.552713e-29)
(3.666965e-07 1.309738e-05 1.190433e-31)
(-1.037569e-07 1.850307e-05 -1.061619e-29)
(-8.539243e-07 2.350732e-05 0)
(-1.722678e-06 2.791198e-05 0)
(-2.547401e-06 3.162157e-05 2.576768e-29)
(2.058807e-07 1.938674e-06 4.771163e-30)
(7.261467e-07 6.593404e-06 -1.175711e-29)
(1.036391e-06 1.134492e-05 8.458155e-30)
(1.044277e-06 1.605498e-05 8.042431e-30)
(8.262944e-07 2.052623e-05 0)
(5.294524e-07 2.461607e-05 0)
(3.73004e-07 2.815881e-05 -2.81537e-29)
(2.339823e-07 1.675262e-06 -6.352261e-30)
(8.782889e-07 5.773703e-06 -1.950384e-29)
(1.442226e-06 9.905006e-06 -6.053201e-30)
(1.828338e-06 1.402795e-05 7.172042e-31)
(2.075495e-06 1.802181e-05 3.899374e-29)
(2.312744e-06 2.178773e-05 3.225603e-29)
(2.732795e-06 2.518814e-05 -9.552088e-30)
(2.450582e-07 1.44338e-06 -7.795424e-30)
(9.486607e-07 5.065617e-06 -2.940378e-30)
(1.657448e-06 8.693433e-06 6.027428e-30)
(2.291112e-06 1.233027e-05 6.24367e-30)
(2.885026e-06 1.592719e-05 0)
(3.526715e-06 1.937219e-05 -1.554104e-29)
(4.309631e-06 2.257307e-05 3.900644e-30)
(2.474383e-07 1.239817e-06 0)
(9.709399e-07 4.443637e-06 -5.875935e-30)
(1.752541e-06 7.643871e-06 -6.038761e-30)
(2.537843e-06 1.090224e-05 5.78422e-29)
(3.350319e-06 1.413934e-05 5.178548e-29)
(4.239913e-06 1.72734e-05 -5.320994e-30)
(5.226387e-06 2.025559e-05 -9.910409e-30)
(2.463754e-07 1.056493e-06 -2.266044e-30)
(9.673806e-07 3.895733e-06 -2.935681e-30)
(1.777895e-06 6.726914e-06 0)
(2.646561e-06 9.647448e-06 -2.981715e-31)
(3.581165e-06 1.256677e-05 3.829249e-30)
(4.572064e-06 1.541318e-05 3.272475e-30)
(5.654008e-06 1.818104e-05 -1.295826e-29)
(2.407667e-07 8.942114e-07 2.556925e-30)
(9.432329e-07 3.413905e-06 -1.184524e-29)
(1.755001e-06 5.940609e-06 -2.401618e-29)
(2.645037e-06 8.541865e-06 -3.601367e-29)
(3.616687e-06 1.116295e-05 -3.164863e-30)
(4.648849e-06 1.375918e-05 0)
(5.752034e-06 1.631749e-05 1.283223e-29)
(2.323778e-07 7.522572e-07 5.393295e-30)
(9.090599e-07 3.003949e-06 -8.027163e-31)
(1.704823e-06 5.251163e-06 1.771025e-30)
(2.58692e-06 7.570237e-06 0)
(3.539319e-06 9.920103e-06 -2.801684e-30)
(4.559495e-06 1.228549e-05 0)
(5.63459e-06 1.464248e-05 2.004261e-30)
(2.227956e-07 6.279859e-07 0)
(8.676419e-07 2.638744e-06 0)
(1.62851e-06 4.635823e-06 -5.406842e-30)
(2.468054e-06 6.700096e-06 0)
(3.383166e-06 8.817291e-06 -4.580954e-30)
(4.361156e-06 1.096932e-05 -2.018117e-30)
(5.37962e-06 1.313488e-05 1.551743e-30)
(2.109443e-07 5.223175e-07 -2.014989e-30)
(8.137734e-07 2.314038e-06 0)
(1.526807e-06 4.085069e-06 8.148082e-31)
(2.316969e-06 5.929983e-06 5.200519e-30)
(3.178486e-06 7.83682e-06 -1.83458e-30)
(4.094873e-06 9.789917e-06 -3.202049e-30)
(5.041306e-06 1.176999e-05 -1.200874e-30)
(1.991305e-07 4.255098e-07 -4.193354e-31)
(7.594731e-07 2.027244e-06 -5.032486e-31)
(1.417116e-06 3.59823e-06 0)
(2.148806e-06 5.247224e-06 7.725932e-30)
(2.945667e-06 6.96272e-06 6.120079e-30)
(3.788314e-06 8.731646e-06 -8.727186e-30)
(4.650384e-06 1.053633e-05 -1.899386e-29)
(1.83984e-07 3.39607e-07 -1.298948e-30)
(6.989483e-07 1.771036e-06 -1.492413e-30)
(1.302195e-06 3.166949e-06 1.530028e-30)
(1.972699e-06 4.640623e-06 0)
(2.700027e-06 6.182449e-06 0)
(3.463098e-06 7.782711e-06 -9.38833e-31)
(4.236323e-06 9.437231e-06 5.155227e-29)
(1.686796e-07 2.636639e-07 -9.377409e-31)
(6.382938e-07 1.54401e-06 -1.251142e-30)
(1.187198e-06 2.784009e-06 1.105884e-30)
(1.796482e-06 4.100587e-06 0)
(2.455217e-06 5.485781e-06 6.077658e-30)
(3.143888e-06 6.932845e-06 4.764449e-34)
(3.845185e-06 8.450575e-06 -6.423129e-30)
(1.531473e-07 1.962124e-07 0)
(5.78379e-07 1.342013e-06 -8.531794e-31)
(1.074897e-06 2.443062e-06 8.914811e-31)
(1.625142e-06 3.619114e-06 0)
(2.218528e-06 4.863864e-06 -6.73667e-30)
(2.836868e-06 6.172955e-06 -1.230727e-29)
(3.462386e-06 7.556499e-06 -6.384519e-30)
(1.377126e-07 1.3605e-07 5.231767e-31)
(5.203785e-07 1.161707e-06 -1.479361e-30)
(9.672242e-07 2.138531e-06 -9.414424e-31)
(1.461967e-06 3.189004e-06 -3.000803e-30)
(1.99466e-06 4.308305e-06 -2.953944e-30)
(2.549087e-06 5.494233e-06 -1.386849e-31)
(3.106696e-06 6.756846e-06 0)
(1.226102e-07 8.214707e-08 5.837508e-31)
(4.648847e-07 1.000097e-06 0)
(8.653542e-07 1.865557e-06 0)
(1.30877e-06 2.803694e-06 3.330138e-30)
(1.785032e-06 3.811189e-06 3.375926e-30)
(2.280282e-06 4.895297e-06 1.18221e-31)
(2.778578e-06 6.050469e-06 0)
(1.081201e-07 3.346186e-08 8.810641e-32)
(4.125636e-07 8.543282e-07 -1.47935e-30)
(7.702719e-07 1.619645e-06 -1.487818e-30)
(1.167331e-06 2.456805e-06 -3.05897e-30)
(1.594817e-06 3.363601e-06 -3.097202e-30)
(2.045293e-06 4.35449e-06 0)
(2.491753e-06 5.414573e-06 4.618339e-31)
(9.430263e-08 -1.074431e-08 -5.846876e-31)
(3.63565e-07 7.219486e-07 -2.232858e-30)
(6.819566e-07 1.396419e-06 -1.494683e-30)
(1.0367e-06 2.142218e-06 1.194066e-31)
(1.41943e-06 2.958041e-06 0)
(1.822017e-06 3.858751e-06 1.38356e-30)
(2.220859e-06 4.832032e-06 6.247801e-32)
(8.125185e-08 -5.127758e-08 7.238704e-31)
(3.179405e-07 6.006632e-07 -3.756382e-31)
(6.004006e-07 1.192059e-06 -1.126639e-30)
(9.166418e-07 1.854566e-06 -2.750893e-30)
(1.259198e-06 2.587694e-06 -3.024769e-30)
(1.618317e-06 3.40601e-06 1.559934e-30)
(1.974585e-06 4.300299e-06 2.3246e-30)
(6.902261e-08 -8.877258e-08 3.051617e-31)
(2.758211e-07 4.885104e-07 6.429662e-31)
(5.254273e-07 1.003103e-06 3.434046e-31)
(8.059909e-07 1.588824e-06 0)
(1.110167e-06 2.249996e-06 -2.442297e-29)
(1.431204e-06 2.99325e-06 -3.077729e-29)
(1.751264e-06 3.810723e-06 -6.075359e-30)
(5.771106e-08 -1.238732e-07 -2.338951e-31)
(2.374248e-07 3.834215e-07 1.210886e-30)
(4.577888e-07 8.260414e-07 4.455779e-30)
(7.081091e-07 1.339799e-06 2.995381e-30)
(9.844025e-07 1.932133e-06 0)
(1.272328e-06 2.606321e-06 7.543229e-31)
(1.553186e-06 3.353666e-06 3.02065e-30)
(4.739576e-08 -1.572631e-07 -1.034063e-31)
(2.02854e-07 2.833903e-07 1.253582e-30)
(3.972113e-07 6.574959e-07 2.969715e-30)
(6.201821e-07 1.10289e-06 1.496528e-30)
(8.669448e-07 1.627258e-06 0)
(1.124282e-06 2.23542e-06 3.900605e-30)
(1.375643e-06 2.92088e-06 6.027285e-30)
(3.818463e-08 -1.895753e-07 5.873457e-31)
(1.72471e-07 1.864627e-07 1.995232e-30)
(3.443712e-07 4.943143e-07 1.484511e-30)
(5.438567e-07 8.737885e-07 1.495528e-30)
(7.64872e-07 1.332562e-06 0)
(9.953436e-07 1.877635e-06 0)
(1.220385e-06 2.504816e-06 0)
(3.030085e-08 -2.215083e-07 0)
(1.468868e-07 9.057705e-08 7.244526e-31)
(3.002e-07 3.329664e-07 0)
(4.803135e-07 6.475338e-07 -3.742016e-30)
(6.793206e-07 1.042255e-06 -3.051605e-30)
(8.864331e-07 1.526091e-06 -3.014108e-30)
(1.08797e-06 2.097359e-06 -3.922855e-30)
(2.395495e-08 -2.538128e-07 6.130374e-31)
(1.2673e-07 -6.618385e-09 0)
(2.651161e-07 1.694689e-07 2.975165e-30)
(4.279428e-07 4.194529e-07 -2.198179e-29)
(6.094018e-07 7.50974e-07 -2.330055e-29)
(7.983298e-07 1.173038e-06 0)
(9.792809e-07 1.689899e-06 -9.967307e-31)
(1.949963e-08 -2.875023e-07 6.901121e-31)
(1.136155e-07 -1.081691e-07 0)
(2.435111e-07 -1.275383e-09 1.489375e-30)
(3.987411e-07 1.807191e-07 1.514094e-30)
(5.673046e-07 4.472434e-07 2.048289e-30)
(7.356204e-07 8.090129e-07 -9.608125e-31)
(8.963276e-07 1.273024e-06 9.837985e-31)
(1.749568e-08 -3.238038e-07 0)
(1.090013e-07 -2.178869e-07 2.297052e-30)
(2.360293e-07 -1.855126e-07 1.489153e-30)
(3.855037e-07 -7.638587e-08 -1.472434e-30)
(5.439108e-07 1.222314e-07 1.056975e-30)
(6.979193e-07 4.239464e-07 -1.029093e-30)
(8.403842e-07 8.364257e-07 3.885679e-32)
(1.886332e-08 -3.644727e-07 0)
(1.160422e-07 -3.40918e-07 8.83354e-31)
(2.479414e-07 -3.914357e-07 -8.551201e-31)
(3.977696e-07 -3.621214e-07 -2.843829e-32)
(5.496265e-07 -2.356871e-07 2.533398e-30)
(6.903383e-07 5.044095e-09 2.98721e-30)
(8.140754e-07 3.678607e-07 -1.063954e-30)
(2.51309e-08 -4.117873e-07 0)
(1.395811e-07 -4.845213e-07 0)
(2.864285e-07 -6.309556e-07 -9.127614e-31)
(4.43327e-07 -6.914823e-07 1.49428e-30)
(5.912425e-07 -6.427101e-07 4.020619e-32)
(7.178664e-07 -4.635475e-07 0)
(8.202132e-07 -1.469929e-07 0)
(3.896391e-08 -4.695693e-07 7.086361e-31)
(1.874209e-07 -6.599865e-07 -8.579227e-31)
(3.626224e-07 -9.215778e-07 -1.927991e-30)
(5.334923e-07 -1.085778e-06 3.617801e-32)
(6.778196e-07 -1.120826e-06 -3.875373e-32)
(7.863568e-07 -1.001996e-06 2.981371e-30)
(8.613298e-07 -7.250577e-07 1.68487e-35)
(6.490763e-08 -5.439727e-07 3.23659e-32)
(2.733988e-07 -8.852549e-07 -8.904449e-31)
(4.947466e-07 -1.290259e-06 -1.946398e-30)
(6.850483e-07 -1.57624e-06 -1.50687e-30)