/*--------------------------------*- C++ -*----------------------------------*\
| =========                 |                                                 |
| \\      /  F ield         | OpenFOAM: The Open Source CFD Toolbox           |
|  \\    /   O peration     | Version:  2206                                  |
|   \\  /    A nd           | Website:  www.openfoam.com                      |
|    \\/     M anipulation  |                                                 |
\*---------------------------------------------------------------------------*/
FoamFile
{
    version     2.0;
    format      ascii;
    arch        "LSB;label=32;scalar=64";
    class       volVectorField;
    location    "2.4";
    object      U.b;
}
// * * * * * * * * * * * * * * * * * * * * * * * * * * * * * * * * * * * * * //

dimensions      [0 1 -1 0 0 0 0];

internalField   nonuniform List<vector> 
13078
(
(-5.595987e-06 8.466417e-06 -4.466998e-27)
(-7.060067e-06 5.776538e-05 7.5072e-30)
(-5.625412e-06 2.49323e-05 2.906171e-27)
(-5.457684e-06 1.023751e-05 0)
(-5.436141e-06 1.271539e-06 4.087677e-28)
(-5.547417e-06 -3.646633e-06 2.042923e-28)
(-5.725193e-06 -7.489952e-06 4.326131e-29)
(3.002721e-05 7.053257e-06 0)
(3.480929e-06 4.006073e-05 -2.398606e-29)
(2.116242e-07 2.467139e-05 0)
(-2.623527e-06 9.59049e-06 0)
(-3.320942e-06 1.515247e-06 6.231491e-31)
(-3.858351e-06 -3.589977e-06 8.324339e-31)
(-4.372623e-06 -7.554231e-06 2.375257e-30)
(6.033666e-05 8.187888e-06 3.846026e-27)
(2.481046e-05 1.911148e-05 -2.014351e-27)
(7.702449e-06 1.362203e-05 -7.692404e-28)
(1.933119e-06 6.575243e-06 -1.072635e-27)
(-4.768671e-07 8.151296e-07 -3.28142e-28)
(-1.861643e-06 -3.865921e-06 0)
(-2.84066e-06 -7.73869e-06 7.755142e-35)
(3.715348e-05 4.982205e-06 2.109511e-27)
(2.140681e-05 1.045614e-05 -2.925765e-27)
(1.11705e-05 8.207326e-06 -1.882988e-27)
(5.424607e-06 4.239595e-06 -5.764276e-28)
(2.316044e-06 -2.19007e-07 9.577533e-30)
(3.185048e-07 -4.381039e-06 0)
(-1.109769e-06 -8.083659e-06 9.427387e-31)
(2.767729e-05 3.139915e-06 3.972303e-30)
(1.998387e-05 6.365294e-06 -1.191404e-27)
(1.332078e-05 5.166842e-06 -1.812027e-27)
(8.40942e-06 2.222683e-06 -1.256816e-27)
(4.95702e-06 -1.36061e-06 6.108643e-28)
(2.625053e-06 -5.115723e-06 -1.41221e-32)
(8.056489e-07 -8.64118e-06 6.215316e-29)
(2.467483e-05 1.931567e-06 0)
(2.008453e-05 3.756451e-06 -1.044795e-29)
(1.521458e-05 2.77619e-06 1.142819e-29)
(1.101895e-05 3.746443e-07 -7.193931e-28)
(7.682246e-06 -2.754277e-06 -8.799577e-30)
(4.987241e-06 -6.084768e-06 -1.712948e-29)
(2.88025e-06 -9.465129e-06 -2.445452e-28)
(2.383378e-05 1.054394e-06 0)
(2.083427e-05 1.78709e-06 -1.11781e-27)
(1.715281e-05 6.92631e-07 -8.707014e-28)
(1.355817e-05 -1.440739e-06 6.116543e-29)
(1.032445e-05 -4.303143e-06 -6.386702e-28)
(7.536456e-06 -7.434949e-06 1.111592e-29)
(5.043104e-06 -1.057253e-05 0)
(2.421565e-05 3.996697e-07 2.447557e-27)
(2.210567e-05 2.168703e-07 -1.15372e-27)
(1.921167e-05 -1.153125e-06 -1.036664e-27)
(1.607197e-05 -3.312376e-06 0)
(1.296708e-05 -6.044199e-06 -1.49109e-27)
(1.009359e-05 -9.042572e-06 1.974512e-29)
(7.412626e-06 -1.210598e-05 3.021898e-29)
(2.54425e-05 -1.130701e-07 7.611243e-32)
(2.384372e-05 -1.093345e-06 2.448945e-27)
(2.145531e-05 -2.868653e-06 1.131538e-27)
(1.864414e-05 -5.183723e-06 1.112555e-29)
(1.565367e-05 -7.937189e-06 -3.416454e-27)
(1.271392e-05 -1.091078e-05 2.855637e-29)
(9.831727e-06 -1.394368e-05 0)
(2.734886e-05 -5.386156e-07 -2.745646e-27)
(2.603853e-05 -2.241974e-06 2.648699e-27)
(2.396332e-05 -4.489236e-06 1.237124e-27)
(2.136976e-05 -7.075271e-06 -2.23241e-27)
(1.844558e-05 -9.973318e-06 -7.886545e-31)
(1.543026e-05 -1.302117e-05 0)
(1.23533e-05 -1.609761e-05 0)
(2.985754e-05 -9.195918e-07 0)
(2.870202e-05 -3.301616e-06 0)
(2.680485e-05 -6.060408e-06 2.737524e-27)
(2.432802e-05 -9.010269e-06 -2.501431e-27)
(2.141056e-05 -1.215577e-05 1.062195e-30)
(1.829166e-05 -1.536968e-05 0)
(1.50079e-05 -1.856298e-05 0)
(3.294188e-05 -1.277419e-06 0)
(3.185896e-05 -4.323567e-06 -3.208551e-27)
(3.003824e-05 -7.632624e-06 3.047068e-27)
(2.75917e-05 -1.10194e-05 2.770869e-27)
(2.461919e-05 -1.449957e-05 -2.581628e-27)
(2.135585e-05 -1.79642e-05 0)
(1.783857e-05 -2.134697e-05 2.01358e-27)
(3.660939e-05 -1.630979e-06 0)
(3.553989e-05 -5.349996e-06 -3.588089e-27)
(3.372011e-05 -9.248926e-06 -2.951631e-29)
(3.122947e-05 -1.313653e-05 3.152957e-27)
(2.81437e-05 -1.702977e-05 -2.870974e-27)
(2.468462e-05 -2.082422e-05 2.537974e-27)
(2.089599e-05 -2.44665e-05 2.15203e-30)
(4.088676e-05 -1.99369e-06 -4.091161e-27)
(3.978792e-05 -6.413546e-06 0)
(3.790898e-05 -1.094908e-05 -3.543523e-29)
(3.530035e-05 -1.53969e-05 -4.992115e-29)
(3.206288e-05 -1.977208e-05 -6.499293e-27)
(2.834059e-05 -2.397843e-05 2.89235e-27)
(2.423569e-05 -2.79478e-05 -2.491476e-27)
(4.581792e-05 -2.375859e-06 -4.583795e-27)
(4.465758e-05 -7.542246e-06 0)
(4.267619e-05 -1.277908e-05 -8.323488e-29)
(3.988212e-05 -1.788318e-05 4.788665e-27)
(3.650912e-05 -2.271798e-05 -2.528779e-27)
(3.240021e-05 -2.745049e-05 0)
(2.791923e-05 -3.182359e-05 2.845774e-27)
(5.145958e-05 -2.784947e-06 0)
(5.020866e-05 -8.752138e-06 -5.023811e-27)
(4.808573e-05 -1.473259e-05 0)
(4.513336e-05 -2.047536e-05 4.667326e-27)
(4.141148e-05 -2.603262e-05 1.71697e-28)
(3.692181e-05 -3.130366e-05 2.079718e-28)
(3.201014e-05 -3.614186e-05 3.489568e-27)
(5.788204e-05 -3.23008e-06 0)
(5.651334e-05 -1.007356e-05 -1.130247e-26)
(5.420225e-05 -1.688554e-05 -5.572489e-29)
(5.099495e-05 -2.339637e-05 -7.738553e-29)
(4.691673e-05 -2.967117e-05 0)
(4.198583e-05 -3.557418e-05 0)
(3.657524e-05 -4.095239e-05 0)
(6.516915e-05 -3.718373e-06 -6.509228e-27)
(6.36574e-05 -1.152446e-05 -6.381805e-27)
(6.11194e-05 -1.925362e-05 -1.275097e-28)
(5.759704e-05 -2.662251e-05 -8.827343e-29)
(5.310619e-05 -3.369132e-05 0)
(4.767555e-05 -4.03139e-05 -5.043697e-27)
(4.168623e-05 -4.631312e-05 -6.219667e-28)
(7.341684e-05 -4.256495e-06 -7.332862e-27)
(7.173634e-05 -1.312535e-05 -7.186092e-27)
(6.893242e-05 -2.187051e-05 -2.174594e-28)
(6.503931e-05 -3.019512e-05 -2.005337e-28)
(6.005228e-05 -3.814296e-05 0)
(5.410263e-05 -4.556514e-05 -5.410659e-27)
(4.742011e-05 -5.229053e-05 -3.512769e-28)
(8.27335e-05 -4.851732e-06 -8.268848e-27)
(8.085763e-05 -1.489695e-05 -1.614576e-26)
(7.775161e-05 -2.477261e-05 -7.760473e-27)
(7.344918e-05 -3.418919e-05 0)
(6.788072e-05 -4.320923e-05 2.196962e-27)
(6.149817e-05 -5.130388e-05 3.334334e-27)
(5.388158e-05 -5.893853e-05 7.904885e-28)
(9.323972e-05 -5.510329e-06 -9.328191e-27)
(9.113866e-05 -1.685667e-05 -1.816337e-26)
(8.768722e-05 -2.79745e-05 -1.740358e-26)
(8.29302e-05 -3.854251e-05 -8.017967e-27)
(7.689838e-05 -4.852747e-05 3.233541e-28)
(6.965225e-05 -5.786331e-05 -6.806989e-27)
(6.115e-05 -6.636952e-05 5.642799e-27)
(0.0001050707 -6.241249e-06 0)
(0.0001027116 -1.903208e-05 -1.018544e-26)
(9.886797e-05 -3.153772e-05 -9.755435e-27)
(9.357916e-05 -4.342745e-05 -1.866197e-26)
(8.689862e-05 -5.463388e-05 0)
(7.881815e-05 -6.512496e-05 -7.699903e-27)
(6.935681e-05 -7.465368e-05 1.070936e-29)
(0.0001183759 -7.051224e-06 1.182619e-26)
(0.0001157245 -2.144367e-05 0)
(0.0001114446 -3.548914e-05 0)
(0.0001055653 -4.884716e-05 3.162071e-28)
(9.813437e-05 -6.142583e-05 1.017582e-26)
(8.909907e-05 -7.317285e-05 0)
(7.867555e-05 -8.383983e-05 -7.813919e-27)
(0.0001333188 -7.947311e-06 2.663732e-26)
(0.0001303377 -2.411135e-05 0)
(0.0001255766 -3.986191e-05 0)
(0.0001190548 -5.485916e-05 1.149385e-26)
(0.0001108293 -6.903843e-05 2.159957e-26)
(0.0001007334 -8.240798e-05 -9.997412e-27)
(8.950794e-05 -9.390378e-05 0)
(0.000150076 -8.936122e-06 1.49926e-26)
(0.0001467229 -2.70538e-05 8.962337e-29)
(0.0001414308 -4.468117e-05 1.422424e-26)
(0.0001342024 -6.146459e-05 4.078357e-28)
(0.000125128 -7.728162e-05 5.275035e-28)
(0.0001142135 -9.197646e-05 -1.134001e-26)
(0.0001014556 -0.0001054093 0)
(0.0001688377 -1.00243e-05 0)
(0.0001650671 -3.029228e-05 -1.644515e-26)
(0.0001591913 -4.99903e-05 1.584839e-26)
(0.0001511903 -6.87666e-05 0)
(0.0001411564 -8.649577e-05 -1.289233e-26)
(0.0001291233 -0.0001029824 2.749201e-27)
(0.0001149422 -0.000118168 1.583114e-27)
(0.0001898062 -1.121636e-05 -1.895363e-26)
(0.0001855741 -3.384231e-05 -1.849388e-26)
(0.0001790605 -5.581317e-05 1.780977e-26)
(0.0001702331 -7.677922e-05 0)
(0.0001591805 -9.661504e-05 -1.284771e-27)
(0.0001459154 -0.0001151085 -2.001414e-30)
(0.0001302125 -0.0001322227 1.770751e-27)
(0.0002131894 -1.251651e-05 -2.129236e-26)
(0.0002084724 -3.770524e-05 -2.076147e-26)
(0.0002012502 -6.216901e-05 2.00286e-26)
(0.0001915429 -8.553177e-05 0)
(0.0001794242 -0.0001076936 0)
(0.0001649315 -0.0001285348 -1.636498e-26)
(0.0001477215 -0.0001482351 -5.068085e-28)
(0.0002392106 -1.390446e-05 -2.39315e-26)
(0.0002339966 -4.189037e-05 -2.345418e-26)
(0.0002259832 -6.907921e-05 0)
(0.0002153376 -9.504148e-05 2.013061e-26)
(0.0002020672 -0.0001196848 -1.593921e-27)
(0.0001862288 -0.000142725 -3.50696e-26)
(0.0001676888 -0.0001637302 6.550475e-27)
(0.0002680538 -1.548665e-05 -2.677287e-26)
(0.0002625429 -4.62394e-05 0)
(0.000253551 -7.650721e-05 -2.571363e-26)
(0.0002418919 -0.0001053704 2.335615e-26)
(0.0002274119 -0.0001328494 -2.25689e-26)
(0.0002100827 -0.0001587698 -4.169266e-26)
(0.0001896395 -0.0001828371 -1.87711e-26)
(0.0003003454 -1.696162e-05 0)
(0.0002938895 -5.112646e-05 0)
(0.0002842314 -8.446751e-05 -5.655118e-26)
(0.0002715173 -0.0001164903 0)
(0.0002558359 -0.0001470695 -5.082168e-26)
(0.0002371436 -0.0001761721 -2.354645e-26)
(0.0002151429 -0.0002037606 2.129231e-26)
(0.0003359921 -1.877285e-05 -3.371169e-26)
(0.0003284324 -5.658343e-05 3.242396e-26)
(0.0003185507 -9.250477e-05 3.13336e-26)
(0.0003047014 -0.0001281376 0)
(0.0002876352 -0.0001622161 -2.86039e-26)
(0.0002676544 -0.0001946559 0)
(0.0002442004 -0.0002254464 1.818684e-26)
(0.0003753618 -2.055466e-05 -3.75447e-26)
(0.000367304 -6.166585e-05 3.672274e-26)
(0.0003557708 -0.0001019591 1.060804e-25)
(0.0003422226 -0.0001398664 6.90779e-26)
(0.0003232704 -0.0001781302 -2.972844e-26)
(0.0003020108 -0.0002144364 2.852756e-27)
(0.0002769829 -0.0002492235 -3.320644e-27)
(0.0004185571 -2.243212e-05 7.1713e-29)
(0.0004096614 -6.705936e-05 2.208452e-28)
(0.000397766 -0.0001102959 4.125623e-26)
(0.0003826789 -0.0001527289 7.34288e-26)
(0.0003632721 -0.0001945719 -4.130606e-26)
(0.0003408226 -0.000235268 6.25484e-27)
(0.0003144313 -0.0002746555 1.466187e-26)
(0.0004657929 -2.434408e-05 -7.746198e-29)
(0.0004558736 -7.270542e-05 -2.388841e-28)
(0.0004434368 -0.0001197156 4.294667e-26)
(0.0004270269 -0.000166496 2.483154e-26)
(0.0004087873 -0.0002102471 -2.609867e-26)
(0.000385115 -0.000256288 3.137481e-26)
(0.0003572332 -0.000301157 0)
(0.0005170371 -2.612159e-05 0)
(0.0005060165 -7.789669e-05 0)
(0.0004932676 -0.0001280863 4.965705e-26)
(0.0004775194 -0.0001777981 5.26192e-26)
(0.0004575322 -0.0002283051 7.354686e-26)
(0.000436489 -0.0002762094 7.047985e-26)
(0.000406145 -0.0003281379 0)
(0.0005719479 -2.763426e-05 -1.738348e-28)
(0.0005597107 -8.234757e-05 5.208101e-28)
(0.0005466562 -0.0001355029 1.774971e-27)
(0.0005314584 -0.0001882601 0)
(0.0005129936 -0.000241526 1.034258e-25)
(0.0004913492 -0.000296805 -7.813593e-27)
(0.0004620781 -0.0003544696 -1.888006e-26)
(0.0006296723 -2.862226e-05 -6.291877e-26)
(0.0006161881 -8.538409e-05 5.574546e-28)
(0.0006032228 -0.0001410585 -6.102216e-26)
(0.0005892239 -0.0001972555 0)
(0.0005728496 -0.0002554777 6.470861e-26)
(0.0005513201 -0.000317696 3.733764e-27)
(0.0005277646 -0.0003777614 -9.433104e-26)
(0.0006885643 -2.878644e-05 -6.890206e-26)
(0.0006743706 -8.61894e-05 -6.749192e-26)
(0.0006621862 -0.0001436395 -6.725634e-26)
(0.0006504844 -0.0002025365 -5.287545e-27)
(0.0006373405 -0.0002639968 -1.39338e-26)
(0.0006192236 -0.0003283483 3.677789e-26)
(0.0005960286 -0.0003987478 -4.302529e-26)
(0.0007464953 -2.817656e-05 0)
(0.0007327568 -8.388958e-05 7.267719e-26)
(0.0007224636 -0.0001421504 7.346184e-26)
(0.0007136729 -0.0002030952 2.685643e-27)
(0.0007042664 -0.0002676045 -7.92997e-26)
(0.0006903719 -0.0003371894 -9.122445e-27)
(0.0006677563 -0.0004157423 0)
(0.0008017686 -2.603047e-05 8.067361e-26)
(0.0007880587 -7.994049e-05 1.561263e-25)
(0.0007817447 -0.0001349943 7.34775e-26)
(0.0007767707 -0.0001964574 1.592391e-25)
(0.0007711647 -0.0002622798 -8.683518e-26)
(0.0007626943 -0.0003339354 7.022582e-26)
(0.0007448566 -0.0004142543 5.525709e-26)
(0.0008503206 -2.286305e-05 8.549193e-26)
(0.0008398055 -7.129932e-05 -4.763805e-28)
(0.0008346449 -0.0001246016 0)
(0.0008364172 -0.0001810209 2.211159e-27)
(0.0008354849 -0.0002476912 1.734284e-25)
(0.0008306852 -0.000323742 8.75223e-26)
(0.0008101597 -0.0004165882 1.099856e-25)
(0.0008894461 -1.868415e-05 -8.957429e-26)
(0.0008828385 -5.972715e-05 7.766336e-28)
(0.0008821668 -0.0001067283 1.447782e-27)
(0.000885807 -0.0001614753 -1.947746e-25)
(0.0008930832 -0.0002244799 1.655093e-25)
(0.0008859927 -0.0003129673 -1.864543e-25)
(0.0008496563 -0.00043002 2.469098e-26)
(0.0009163916 -1.363897e-05 -9.231097e-26)
(0.0009152412 -4.548877e-05 0)
(0.0009184712 -8.453842e-05 2.268472e-27)
(0.0009290113 -0.0001346469 3.753287e-27)
(0.0009314149 -0.0002082606 -2.80531e-30)
(0.0009165106 -0.0003138377 -1.931353e-25)
(0.0008610519 -0.0004692096 1.829564e-25)
(0.0009298685 -8.103295e-06 0)
(0.0009344648 -2.885666e-05 7.708831e-28)
(0.0009418772 -5.864544e-05 1.68674e-27)
(0.0009564079 -0.000110602 1.049947e-30)
(0.0009510422 -0.000202719 9.936612e-26)
(0.000913482 -0.0003410421 6.283021e-26)
(0.0008436555 -0.0005185427 2.539028e-25)
(0.0009292778 -2.200558e-06 0)
(0.0009382131 -1.080645e-05 4.487596e-32)
(0.0009483266 -3.38443e-05 9.823418e-26)
(0.000958483 -9.691276e-05 4.524774e-27)
(0.000942301 -0.0002160006 1.94753e-25)
(0.0008921201 -0.000384379 4.906466e-30)
(0.0008035859 -0.00060982 -5.151764e-29)
(0.000912936 4.487972e-06 -9.195363e-26)
(0.0009261501 6.583028e-06 -9.401137e-26)
(0.0009347999 -2.049433e-05 9.547202e-26)
(0.0009299488 -0.0001021317 -9.510122e-26)
(0.0009043796 -0.0002434195 -8.74954e-26)
(0.0008439513 -0.0004436886 7.002534e-33)
(0.0007516858 -0.0006986032 -3.819276e-26)
(0.0008786224 1.181546e-05 -8.843348e-26)
(0.0008937212 1.853385e-05 -9.051301e-26)
(0.0008961053 -2.260441e-05 -6.646624e-31)
(0.0008804095 -0.000125488 -8.907854e-26)
(0.0008411774 -0.000294558 -1.912318e-25)
(0.0007719179 -0.0005214692 -5.376376e-26)
(0.0006770721 -0.0008159092 2.17088e-25)
(0.0008251139 1.674792e-05 -9.075523e-29)
(0.0008366868 2.122741e-05 -2.318587e-28)
(0.0008313288 -3.74729e-05 -8.309307e-26)
(0.0008095209 -0.0001633276 8.085834e-26)
(0.0007623699 -0.0003548128 -2.097134e-30)
(0.0006875393 -0.0006120449 -1.211331e-34)
(0.0005849244 -0.0009516458 4.104499e-25)
(0.0007518293 1.611638e-05 -7.549429e-26)
(0.0007553553 1.199286e-05 -1.136799e-30)
(0.0007420656 -6.405262e-05 -1.479883e-25)
(0.000714802 -0.0002114561 9.907883e-29)
(0.0006635674 -0.0004288765 -8.617356e-26)
(0.0005883413 -0.0007187004 -3.941184e-26)
(0.0004844242 -0.00108742 -1.217896e-25)
(0.0006590547 9.884929e-06 -6.636653e-26)
(0.0006540235 -1.065847e-05 4.212049e-28)
(0.0006338416 -0.0001024865 -1.878743e-25)
(0.0005995758 -0.0002697069 -7.215561e-26)
(0.0005417368 -0.000513725 -6.282725e-26)
(0.0004626729 -0.0008322029 -3.624761e-26)
(0.0003673873 -0.001227498 -2.028281e-26)
(0.0005465821 -2.110266e-06 6.415329e-31)
(0.0005374521 -4.232192e-05 1.296114e-27)
(0.0005150807 -0.0001531511 -7.647818e-26)
(0.000470213 -0.0003431652 8.025769e-26)
(0.0004035349 -0.0006153236 -2.365341e-30)
(0.0003170692 -0.0009609418 -1.861677e-26)
(0.0002218067 -0.001373369 -1.095074e-28)
(0.0004178988 -1.425526e-05 2.334006e-31)
(0.0004084154 -7.447719e-05 1.872284e-32)
(0.0003841039 -0.000207421 -1.833002e-26)
(0.000336892 -0.0004257685 2.913505e-26)
(0.0002667764 -0.0007242376 -5.494224e-30)
(0.0001767776 -0.001096296 -1.387026e-30)
(7.915042e-05 -0.001544888 1.749874e-25)
(0.0002800061 -2.59377e-05 9.505668e-29)
(0.0002714511 -0.0001065889 -1.194138e-26)
(0.0002481955 -0.0002611018 -7.684355e-27)
(0.0002065139 -0.0005056555 1.045606e-26)
(0.0001451713 -0.0008336797 2.308319e-26)
(6.55505e-05 -0.001239097 1.967603e-26)
(-3.140453e-05 -0.001714373 -2.289996e-29)
(0.0001410119 -3.629291e-05 -6.918489e-27)
(0.0001342674 -0.0001355566 -6.149973e-27)
(0.000116441 -0.0003080374 -4.730262e-27)
(8.542523e-05 -0.0005741362 -1.99393e-30)
(4.038911e-05 -0.0009260451 -2.560402e-26)
(-1.770077e-05 -0.001358366 -2.560062e-26)
(-8.883231e-05 -0.001855607 3.826369e-29)
(1.191744e-06 -4.385941e-05 2.472123e-28)
(-1.257492e-06 -0.0001559449 5.39616e-28)
(-1.003689e-05 -0.0003404454 -3.272038e-27)
(-2.615986e-05 -0.0006204233 -8.550979e-27)
(-4.885419e-05 -0.0009874152 -1.809417e-29)
(-7.803918e-05 -0.001435645 9.460971e-27)
(-0.0001124871 -0.001943899 5.174403e-26)
(-0.0001403456 -4.556463e-05 4.253461e-27)
(-0.0001380822 -0.000161959 5.592844e-28)
(-0.0001375522 -0.000351716 -3.3374e-27)
(-0.0001377811 -0.0006361484 -1.208794e-26)
(-0.0001367974 -0.001006549 8.289963e-30)
(-0.000134248 -0.001457276 1.940775e-27)
(-0.000129892 -0.001966814 1.064962e-25)
(-0.0002764661 -4.240895e-05 2.089258e-26)
(-0.0002720341 -0.0001546278 5.418226e-28)
(-0.0002642738 -0.000341726 1.278913e-26)
(-0.0002510251 -0.0006205893 -5.952404e-27)
(-0.0002296103 -0.00098258 7.060767e-30)
(-0.0001994605 -0.001423061 -3.914506e-26)
(-0.0001606382 -0.001922745 -4.951769e-26)
(-0.0004050667 -3.577268e-05 4.050831e-26)
(-0.000399956 -0.0001374915 -1.977266e-26)
(-0.0003870772 -0.0003157777 1.875102e-26)
(-0.0003636175 -0.0005827348 8.102062e-27)
(-0.0003271244 -0.0009295269 1.252217e-29)
(-0.0002780503 -0.001352002 1.861928e-26)
(-0.0002163364 -0.001836325 -4.5259e-26)
(-0.0005293782 -2.635922e-05 2.646701e-26)
(-0.0005251501 -0.0001135141 -5.191157e-26)
(-0.0005103576 -0.000279448 1.425239e-31)
(-0.000479203 -0.0005318944 3.233434e-30)
(-0.0004327831 -0.0008617904 1.883798e-26)
(-0.0003724695 -0.001264821 6.945055e-26)
(-0.000305985 -0.001739359 9.574604e-26)
(-0.000645016 -1.555292e-05 -1.292956e-28)
(-0.000643785 -8.662296e-05 -6.421571e-26)
(-0.0006315611 -0.0002384273 9.028909e-26)
(-0.0005999143 -0.0004739796 -5.200156e-26)
(-0.0005488397 -0.0007917503 2.447497e-26)
(-0.0004825249 -0.001178779 -2.198575e-25)
(-0.0004102115 -0.001619038 -3.52345e-25)
(-0.0007448823 -4.779332e-06 7.421434e-26)
(-0.0007495174 -5.9216e-05 -3.694715e-26)
(-0.0007388156 -0.0001925114 6.754623e-26)
(-0.0007111022 -0.0004090952 8.909944e-34)
(-0.0006586055 -0.0007049055 6.437208e-30)
(-0.0005881771 -0.001074259 -5.909619e-26)
(-0.0005070112 -0.001508913 -5.002277e-26)
(-0.0008247555 2.03858e-06 8.217775e-26)
(-0.0008380041 -3.475068e-05 -3.928751e-31)
(-0.0008313418 -0.0001514391 -1.647626e-25)
(-0.0008068345 -0.0003478904 -2.027435e-26)
(-0.0007554975 -0.0006204377 -5.209096e-26)
(-0.0006803406 -0.0009675952 -1.095206e-25)
(-0.0005849615 -0.001389833 4.140909e-26)
(-0.0008857582 3.92632e-06 -2.547933e-32)
(-0.0009073822 -2.115424e-05 -8.927614e-26)
(-0.0009087523 -0.000117242 -1.757821e-25)
(-0.000890126 -0.0002901258 1.762466e-31)
(-0.0008414857 -0.0005359994 1.518563e-29)
(-0.0007626431 -0.0008529746 8.719953e-30)
(-0.0006615305 -0.001256321 -4.039187e-32)
(-0.0009281927 1.48303e-07 -9.248552e-26)
(-0.0009541955 -1.918427e-05 1.795694e-29)
(-0.000964998 -9.376249e-05 3.260238e-27)
(-0.0009540985 -0.0002405705 7.292622e-27)
(-0.0009141874 -0.0004620948 1.110971e-25)
(-0.0008379706 -0.0007425224 -1.631057e-25)
(-0.0007390962 -0.001095437 -1.770803e-25)
(-0.0009512741 -6.641128e-06 -9.486637e-26)
(-0.0009762372 -2.80454e-05 9.539079e-26)
(-0.0009953069 -8.386441e-05 9.551557e-26)
(-0.0009967109 -0.0002031673 -3.995925e-30)
(-0.0009723405 -0.0003871118 1.741239e-25)
(-0.0009069684 -0.0006386435 -5.677779e-28)
(-0.0008093107 -0.0009543457 -3.279308e-28)
(-0.0009558127 -1.282276e-05 0)
(-0.0009765504 -4.332042e-05 3.01004e-30)
(-0.0009989002 -9.018737e-05 -1.020572e-25)
(-0.001016995 -0.0001816867 -1.07715e-25)
(-0.00100646 -0.0003387512 -3.360929e-31)
(-0.0009569533 -0.0005526446 -8.76549e-26)
(-0.0008673014 -0.0008339755 -2.115389e-25)
(-0.0009436801 -1.791806e-05 0)
(-0.0009603134 -5.810326e-05 -1.695403e-27)
(-0.000980482 -0.000108853 -9.90139e-26)
(-0.001005148 -0.0001840568 -9.686702e-26)
(-0.00100878 -0.0003068723 1.7155e-26)
(-0.000978709 -0.0004872708 2.682783e-26)
(-0.0009101461 -0.0007164056 8.746734e-26)
(-0.0009176603 -2.2096e-05 -9.143566e-26)
(-0.0009284836 -7.134264e-05 0)
(-0.0009440501 -0.0001292742 0)
(-0.0009646766 -0.0001995789 -3.01488e-30)
(-0.0009777783 -0.0002981486 -2.120637e-25)
(-0.0009706344 -0.0004390792 -4.510962e-26)
(-0.0009214883 -0.0006405155 1.656788e-25)
(-0.0008794651 -2.574072e-05 -8.761366e-26)
(-0.0008846603 -8.146808e-05 -1.109625e-27)
(-0.000894666 -0.0001448208 -2.018091e-27)
(-0.0009072969 -0.0002181559 -2.126594e-26)
(-0.0009219977 -0.0003023763 -2.029524e-25)
(-0.0009225171 -0.0004186156 4.89022e-30)
(-0.0008936893 -0.0005764089 -1.184562e-29)
(-0.0008320306 -2.835739e-05 0)
(-0.0008325556 -8.839113e-05 8.230145e-26)
(-0.0008364309 -0.0001551453 0)
(-0.0008435971 -0.0002275739 -6.021801e-27)
(-0.0008473591 -0.0003128767 -8.359744e-27)
(-0.0008457766 -0.0004119618 2.233515e-31)
(-0.0008293367 -0.0005330478 1.04797e-25)
(-0.0007784244 -2.983623e-05 0)
(-0.0007752302 -9.234669e-05 -7.609008e-26)
(-0.0007752637 -0.0001580342 7.580381e-26)
(-0.000773488 -0.0002319208 0)
(-0.0007687048 -0.0003133145 -1.610998e-26)
(-0.0007599369 -0.0004019233 2.976098e-26)
(-0.000738501 -0.0005042996 1.529821e-26)
(-0.0007212022 -3.043871e-05 0)
(-0.0007167956 -9.217715e-05 -2.119767e-25)
(-0.0007117394 -0.0001582209 -1.111797e-28)
(-0.000704028 -0.0002288771 -1.475664e-25)
(-0.0006931423 -0.0003034377 -1.574322e-26)
(-0.0006745859 -0.0003860564 6.374104e-26)
(-0.0006444021 -0.000477889 -9.039325e-26)
(-0.0006633806 -2.982091e-05 6.604114e-26)
(-0.0006576121 -9.071757e-05 -6.610997e-26)
(-0.0006498655 -0.0001537264 2.674696e-29)
(-0.0006387911 -0.0002195623 -1.204024e-25)
(-0.0006220649 -0.0002886303 0)
(-0.0005979876 -0.0003606197 0)
(-0.0005651503 -0.0004366196 -7.68369e-26)
(-0.0006062661 -2.870678e-05 6.016423e-26)
(-0.000599872 -8.719613e-05 -5.98832e-26)
(-0.0005906403 -0.0001469357 5.792106e-26)
(-0.0005774779 -0.0002075952 5.616254e-26)
(-0.0005575127 -0.0002711964 0)
(-0.000529784 -0.0003373277 0)
(-0.0004968593 -0.0003990567 -6.228494e-26)
(-0.0005512432 -2.714571e-05 -5.490403e-26)
(-0.0005446078 -8.236967e-05 -5.59164e-26)
(-0.0005349268 -0.0001376385 -1.773847e-27)
(-0.0005200818 -0.0001941649 4.810368e-26)
(-0.0004987796 -0.0002516613 1.845656e-26)
(-0.0004719244 -0.0003073054 -6.509936e-26)
(-0.0004358723 -0.0003646716 3.116232e-26)
(-0.0004993578 -2.526028e-05 -4.989372e-26)
(-0.0004929364 -7.649368e-05 -5.037195e-28)
(-0.0004827413 -0.0001278937 1.667031e-27)
(-0.0004675167 -0.0001794384 2.356994e-27)
(-0.0004464791 -0.0002313671 0)
(-0.0004199616 -0.0002813452 -4.592997e-26)
(-0.0003856568 -0.0003310925 3.65701e-26)
(-0.0004510309 -2.339438e-05 0)
(-0.0004449144 -7.054777e-05 -9.147753e-28)
(-0.0004346083 -0.0001179513 -1.547248e-27)
(-0.0004189905 -0.0001656785 9.6164e-26)
(-0.0003999631 -0.0002104508 2.056325e-26)
(-0.0003733704 -0.0002564486 6.474322e-26)
(-0.0003424349 -0.0002993537 2.466474e-26)
(-0.0004065777 -2.137992e-05 -1.363372e-28)
(-0.0004006403 -6.462032e-05 -4.248501e-28)
(-0.0003906642 -0.0001075783 0)
(-0.0003764063 -0.0001502239 -1.141706e-28)
(-0.0003567158 -0.0001922294 3.452325e-26)
(-0.0003327959 -0.0002323742 3.199052e-26)
(-0.0003044854 -0.0002699794 -7.114859e-27)
(-0.0003658473 -1.95079e-05 3.639616e-26)
(-0.0003601685 -5.904461e-05 -3.661377e-26)
(-0.0003503642 -9.862542e-05 6.247999e-26)
(-0.0003376772 -0.0001362848 -7.347869e-26)
(-0.0003188659 -0.0001742236 2.859878e-26)
(-0.0002969726 -0.0002097419 0)
(-0.0002709978 -0.0002429029 6.406599e-27)
(-0.0003286646 -1.774482e-05 3.286307e-26)
(-0.0003230785 -5.390308e-05 -3.163579e-26)
(-0.0003146934 -8.888882e-05 3.05499e-26)
(-0.0003018253 -0.0001238946 0)
(-0.0002851593 -0.0001573737 -2.775595e-26)
(-0.0002651116 -0.0001889254 0)
(-0.0002414213 -0.0002182829 2.330588e-26)
(-0.0002949617 -1.598182e-05 0)
(-0.0002901388 -4.849525e-05 0)
(-0.0002818523 -8.07141e-05 -5.541926e-26)
(-0.0002701323 -0.0001119196 0)
(-0.000255063 -0.0001417484 -4.971252e-26)
(-0.0002367002 -0.0001699356 -2.299573e-26)
(-0.0002149624 -0.0001962703 2.077183e-26)
(-0.0002644216 -1.45513e-05 -2.63357e-26)
(-0.0002602757 -4.370023e-05 0)
(-0.0002525274 -7.277359e-05 -2.436585e-26)
(-0.0002418667 -0.0001007161 2.437917e-26)
(-0.0002281439 -0.0001273717 -2.225695e-26)
(-0.0002114058 -0.0001524111 -4.113412e-26)
(-0.0001915453 -0.0001754384 -1.854899e-26)
(-0.0002371378 -1.303431e-05 -2.357489e-26)
(-0.0002331134 -3.947039e-05 -2.295343e-26)
(-0.0002262178 -6.54615e-05 0)
(-0.0002165551 -9.046587e-05 2.242454e-26)
(-0.0002041248 -0.000114271 1.506131e-27)
(-0.0001890305 -0.0001364927 -3.865126e-26)
(-0.000171245 -0.000156643 -6.211809e-27)
(-0.000212527 -1.171036e-05 -2.117162e-26)
(-0.0002088486 -3.544049e-05 -2.067883e-26)
(-0.0002026441 -5.873697e-05 1.998732e-26)
(-0.0001938914 -8.114486e-05 0)
(-0.0001826504 -0.0001024827 0)
(-0.0001689887 -0.0001225551 -1.648515e-26)
(-0.0001526488 -0.0001414698 2.898437e-26)
(-0.0001904209 -1.047761e-05 -1.896721e-26)
(-0.0001871041 -3.17488e-05 -1.854358e-26)
(-0.0001815198 -5.260864e-05 1.790317e-26)
(-0.0001736074 -7.265414e-05 0)
(-0.0001634376 -9.170697e-05 1.207279e-27)
(-0.000151042 -0.0001095101 2.031116e-30)
(-0.0001362457 -0.0001259845 -1.67105e-27)
(-0.0001706067 -9.352861e-06 0)
(-0.0001676487 -2.837726e-05 -1.66138e-26)
(-0.0001626235 -4.703641e-05 1.605924e-26)
(-0.0001554892 -6.494498e-05 0)
(-0.000146318 -8.194446e-05 -1.544303e-26)
(-0.000135151 -9.781102e-05 -2.586407e-27)
(-0.000121872 -0.0001124606 -1.492947e-27)
(-0.0001528852 -8.330251e-06 1.523428e-26)
(-0.0001502592 -2.531694e-05 -8.309132e-29)
(-0.0001457463 -4.198611e-05 1.425325e-26)
(-0.0001393312 -5.79646e-05 -3.809628e-28)
(-0.0001310828 -7.311062e-05 -4.706031e-28)
(-0.0001210066 -8.724951e-05 -1.183287e-26)
(-0.0001091144 -0.000100234 0)
(-0.0001370637 -7.404054e-06 2.731373e-26)
(-0.0001347386 -2.254774e-05 0)
(-0.000130692 -3.742383e-05 0)
(-0.0001249287 -5.168138e-05 1.265337e-26)
(-0.0001174867 -6.524253e-05 2.351612e-26)
(-0.0001082019 -7.809509e-05 -1.057787e-26)
(-9.778372e-05 -8.921177e-05 0)
(-0.0001229586 -6.566868e-06 1.225055e-26)
(-0.0001209033 -2.004516e-05 -6.59307e-29)
(-0.0001172802 -3.33001e-05 -1.09719e-28)
(-0.000112107 -4.59864e-05 -3.101498e-28)
(-0.0001054134 -5.800702e-05 9.972911e-27)
(-9.714256e-05 -6.929711e-05 0)
(-8.750058e-05 -7.960141e-05 -8.537044e-27)
(-0.0001104015 -5.811772e-06 -9.452152e-30)
(-0.0001085882 -1.778886e-05 -1.086338e-26)
(-0.0001053498 -2.958546e-05 -1.051876e-26)
(-0.0001007176 -4.086947e-05 -1.987043e-26)
(-9.472668e-05 -5.157091e-05 0)
(-8.736255e-05 -6.164807e-05 -8.421906e-27)
(-7.864203e-05 -7.084933e-05 1.017391e-29)
(-9.923591e-05 -5.131699e-06 -9.879836e-27)
(-9.763815e-05 -1.575818e-05 -1.940281e-26)
(-9.474693e-05 -2.624458e-05 -1.883261e-26)
(-9.060105e-05 -3.627037e-05 -9.17776e-27)
(-8.521476e-05 -4.580046e-05 -3.028893e-28)
(-7.864085e-05 -5.476367e-05 -7.582124e-27)
(-7.083473e-05 -6.297491e-05 7.339684e-27)
(-8.931905e-05 -4.520003e-06 -8.89808e-27)
(-8.791118e-05 -1.393257e-05 -1.744827e-26)
(-8.532681e-05 -2.324936e-05 -8.441499e-27)
(-8.159669e-05 -3.218131e-05 0)
(-7.664191e-05 -4.07871e-05 -2.041619e-27)
(-7.088558e-05 -4.855992e-05 -3.117744e-27)
(-6.391749e-05 -5.592551e-05 -7.453498e-28)
(-8.052192e-05 -3.968238e-06 -8.0285e-27)
(-7.928025e-05 -1.228576e-05 -7.846878e-27)
(-7.696559e-05 -2.054094e-05 2.027928e-28)
(-7.361105e-05 -2.843915e-05 1.87604e-28)
(-6.920137e-05 -3.602239e-05 0)
(-6.385178e-05 -4.31418e-05 -6.268238e-27)
(-5.776779e-05 -4.962755e-05 3.316387e-28)
(-7.272915e-05 -3.470587e-06 -7.249469e-27)
(-7.163268e-05 -1.080123e-05 -7.092591e-27)
(-6.955743e-05 -1.810463e-05 1.191322e-28)
(-6.654458e-05 -2.509912e-05 8.271715e-29)
(-6.25991e-05 -3.184315e-05 0)
(-5.77395e-05 -3.819214e-05 -5.414248e-27)
(-5.231326e-05 -4.397236e-05 5.879097e-28)
(-6.583685e-05 -3.020421e-06 4.90294e-30)
(-6.48653e-05 -9.459944e-06 -1.286018e-26)
(-6.299681e-05 -1.590643e-05 5.218414e-29)
(-6.027704e-05 -2.209099e-05 7.268292e-29)
(-5.671995e-05 -2.807736e-05 0)
(-5.23335e-05 -3.373238e-05 0)
(-4.745735e-05 -3.890687e-05 0)
(-5.975261e-05 -2.611858e-06 0)
(-5.88862e-05 -8.243523e-06 -5.844061e-27)
(-5.719247e-05 -1.391563e-05 0)
(-5.47129e-05 -1.937639e-05 5.281255e-27)
(-5.149492e-05 -2.467782e-05 -1.620457e-28)
(-4.752875e-05 -2.972173e-05 -1.968529e-28)
(-4.312842e-05 -3.436708e-05 4.01502e-27)
(-5.439497e-05 -2.238804e-06 -5.415563e-27)
(-5.36126e-05 -7.136375e-06 0)
(-5.205546e-05 -1.211849e-05 7.858354e-29)
(-4.97319e-05 -1.697843e-05 4.19415e-27)
(-4.685121e-05 -2.159153e-05 -5.703013e-27)
(-4.324796e-05 -2.611142e-05 0)
(-3.925965e-05 -3.029722e-05 3.86584e-27)
(-4.969421e-05 -1.893662e-06 -4.946161e-27)
(-4.897399e-05 -6.112474e-06 0)
(-4.752346e-05 -1.044718e-05 3.376797e-29)
(-4.538868e-05 -1.468997e-05 4.761033e-29)
(-4.264668e-05 -1.885873e-05 -8.42379e-27)
(-3.941542e-05 -2.286509e-05 3.893313e-27)
(-3.57884e-05 -2.664846e-05 -3.533022e-27)
(-4.559188e-05 -1.570651e-06 0)
(-4.491102e-05 -5.15944e-06 -4.443925e-27)
(-4.353506e-05 -8.909317e-06 2.852507e-29)
(-4.153139e-05 -1.262384e-05 4.099411e-27)
(-3.894893e-05 -1.632567e-05 -3.854207e-27)
(-3.597709e-05 -1.992329e-05 3.559859e-27)
(-3.26551e-05 -2.337405e-05 2.103867e-30)
(-4.203986e-05 -1.262035e-06 0)
(-4.136918e-05 -4.255301e-06 -4.110993e-27)
(-4.002347e-05 -7.466155e-06 3.976722e-27)
(-3.809135e-05 -1.070519e-05 3.802097e-27)
(-3.563747e-05 -1.39999e-05 -3.494109e-27)
(-3.286263e-05 -1.726151e-05 1.101436e-28)
(-2.980176e-05 -2.044053e-05 2.957479e-27)
(-3.900303e-05 -9.585712e-07 0)
(-3.830405e-05 -3.375877e-06 0)
(-3.693493e-05 -6.08524e-06 3.677935e-27)
(-3.50159e-05 -8.902676e-06 -3.479201e-27)
(-3.264052e-05 -1.185586e-05 1.094645e-30)
(-3.001386e-05 -1.484961e-05 0)
(-2.717494e-05 -1.781958e-05 0)