/*--------------------------------*- C++ -*----------------------------------*\
| =========                 |                                                 |
| \\      /  F ield         | OpenFOAM: The Open Source CFD Toolbox           |
|  \\    /   O peration     | Version:  2206                                  |
|   \\  /    A nd           | Website:  www.openfoam.com                      |
|    \\/     M anipulation  |                                                 |
\*---------------------------------------------------------------------------*/
FoamFile
{
    version     2.0;
    format      ascii;
    arch        "LSB;label=32;scalar=64";
    class       volVectorField;
    location    "2.4";
    object      U.b_0;
}
// * * * * * * * * * * * * * * * * * * * * * * * * * * * * * * * * * * * * * //

dimensions      [0 1 -1 0 0 0 0];

internalField   nonuniform List<vector> 
13078
(
(-6.296419e-06 8.648308e-06 -4.477114e-27)
(-7.649875e-06 5.910878e-05 7.964618e-30)
(-6.140384e-06 2.654686e-05 2.98347e-27)
(-5.953563e-06 1.24895e-05 0)
(-5.91311e-06 4.098734e-06 4.77369e-28)
(-5.993921e-06 -2.849861e-07 2.86124e-28)
(-6.134507e-06 -3.636678e-06 1.368614e-28)
(2.886981e-05 7.373845e-06 0)
(2.34039e-06 4.094561e-05 -2.310112e-29)
(-8.792235e-07 2.62459e-05 0)
(-3.703094e-06 1.183813e-05 0)
(-4.354769e-06 4.365735e-06 1.417722e-30)
(-4.825518e-06 -1.818603e-07 1.203997e-30)
(-5.252546e-06 -3.640657e-06 3.050255e-30)
(5.839361e-05 8.469601e-06 3.750704e-27)
(2.295956e-05 2.001731e-05 -1.924557e-27)
(5.947992e-06 1.520537e-05 -8.068916e-28)
(2.369087e-07 8.857123e-06 -1.182219e-27)
(-2.088739e-06 3.740424e-06 -3.999435e-28)
(-3.364257e-06 -3.629286e-07 0)
(-4.20625e-06 -3.709046e-06 6.361795e-34)
(3.448267e-05 5.305386e-06 1.978529e-27)
(1.882308e-05 1.14519e-05 -2.674977e-27)
(8.696376e-06 9.90272e-06 -1.6497e-27)
(3.087293e-06 6.607296e-06 -4.696177e-28)
(9.90027e-08 2.814872e-06 6.180003e-30)
(-1.742868e-06 -7.343095e-07 0)
(-2.982636e-06 -3.882268e-06 -4.885961e-31)
(2.428929e-05 3.498441e-06 4.244974e-30)
(1.66645e-05 7.450125e-06 -1.02776e-27)
(1.011831e-05 6.981715e-06 -1.50266e-27)
(5.362355e-06 4.748197e-06 -9.594369e-28)
(2.103174e-06 1.831807e-06 5.630381e-28)
(-2.673759e-08 -1.271124e-06 -7.267338e-33)
(-1.603036e-06 -4.207844e-06 -4.116677e-29)
(2.050896e-05 2.323059e-06 0)
(1.598507e-05 4.933968e-06 -1.224296e-29)
(1.124544e-05 4.732874e-06 1.439999e-29)
(7.232392e-06 3.087939e-06 -5.388263e-28)
(4.127091e-06 6.761498e-07 -1.938173e-29)
(1.7102e-06 -1.992022e-06 8.129579e-29)
(-9.980712e-08 -4.738194e-06 -1.206825e-29)
(1.881906e-05 1.481792e-06 0)
(1.589188e-05 3.069385e-06 -8.776907e-28)
(1.236251e-05 2.819004e-06 -5.894963e-28)
(8.971157e-06 1.493157e-06 1.312385e-28)
(6.02018e-06 -5.911009e-07 -4.459863e-28)
(3.561604e-06 -3.003368e-06 -2.399324e-30)
(1.454393e-06 -5.490777e-06 0)
(1.827317e-05 8.669208e-07 1.865742e-27)
(1.624453e-05 1.617799e-06 -8.6881e-28)
(1.3518e-05 1.16239e-06 -7.618515e-28)
(1.062645e-05 -1.084966e-07 0)
(7.852953e-06 -1.994765e-06 -1.005994e-27)
(5.368053e-06 -4.212024e-06 5.011194e-30)
(3.137264e-06 -6.567369e-06 1.3331e-29)
(1.84811e-05 4.006722e-07 9.361925e-33)
(1.697516e-05 4.458715e-07 1.781072e-27)
(1.478044e-05 -3.247576e-07 8.014382e-28)
(1.225958e-05 -1.663334e-06 3.779988e-31)
(9.654228e-06 -3.49121e-06 -2.290048e-27)
(7.168242e-06 -5.61179e-06 1.238351e-29)
(4.811605e-06 -7.870776e-06 0)
(1.926181e-05 2.782571e-08 -1.953623e-27)
(1.806061e-05 -5.412674e-07 1.872615e-27)
(1.620909e-05 -1.678013e-06 8.62383e-28)
(1.395111e-05 -3.188397e-06 -1.525532e-27)
(1.147144e-05 -5.067024e-06 -3.772492e-31)
(8.981149e-06 -7.175945e-06 0)
(6.514034e-06 -9.39962e-06 0)
(2.052432e-05 -2.888649e-07 0)
(1.949675e-05 -1.413282e-06 0)
(1.785556e-05 -2.942375e-06 1.872596e-27)
(1.576312e-05 -4.700422e-06 -1.684378e-27)
(1.335745e-05 -6.717988e-06 5.878058e-31)
(1.084342e-05 -8.891768e-06 0)
(8.262097e-06 -1.114069e-05 0)
(2.222523e-05 -5.739101e-07 0)
(2.128659e-05 -2.220046e-06 -2.180002e-27)
(1.976018e-05 -4.163523e-06 2.053175e-27)
(1.775286e-05 -6.22487e-06 1.847145e-27)
(1.536737e-05 -8.449531e-06 -1.682135e-27)
(1.279771e-05 -1.075793e-05 0)
(1.008562e-05 -1.309121e-05 1.237286e-27)
(2.434838e-05 -8.459924e-07 0)
(2.344278e-05 -3.002013e-06 -2.403625e-27)
(2.195936e-05 -5.377227e-06 -1.768379e-29)
(1.997192e-05 -7.786956e-06 2.078429e-27)
(1.755512e-05 -1.027928e-05 -1.863102e-27)
(1.488928e-05 -1.278388e-05 1.612372e-27)
(1.202033e-05 -1.525632e-05 1.392013e-30)
(2.689701e-05 -1.1157e-06 -2.720677e-27)
(2.598643e-05 -3.786874e-06 0)
(2.449111e-05 -6.617941e-06 -2.222464e-29)
(2.245929e-05 -9.414991e-06 -3.164819e-29)
(1.997534e-05 -1.222515e-05 -4.197748e-27)
(1.716264e-05 -1.498653e-05 1.835178e-27)
(1.410508e-05 -1.764882e-05 -1.54163e-27)
(2.989038e-05 -1.391934e-06 -3.023157e-27)
(2.894579e-05 -4.598282e-06 0)
(2.739991e-05 -7.922628e-06 -5.37112e-29)
(2.527085e-05 -1.116921e-05 3.114082e-27)
(2.272023e-05 -1.428212e-05 -1.613539e-27)
(1.967156e-05 -1.737913e-05 0)
(1.638249e-05 -2.028635e-05 1.765141e-27)
(3.335726e-05 -1.681058e-06 0)
(3.235345e-05 -5.449887e-06 -3.286227e-27)
(3.072294e-05 -9.289298e-06 0)
(2.850177e-05 -1.29703e-05 3.023762e-27)
(2.574116e-05 -1.656251e-05 1.139901e-28)
(2.245483e-05 -2.000376e-05 1.389355e-28)
(1.889519e-05 -2.319836e-05 2.181047e-27)
(3.733602e-05 -1.990079e-06 0)
(3.625048e-05 -6.364166e-06 -7.358155e-27)
(3.449851e-05 -1.077117e-05 -3.708046e-29)
(3.211616e-05 -1.496882e-05 -5.16402e-29)
(2.913133e-05 -1.903454e-05 0)
(2.556484e-05 -2.28828e-05 0)
(2.168672e-05 -2.641509e-05 0)
(4.187451e-05 -2.324393e-06 -4.228595e-27)
(4.068683e-05 -7.354735e-06 -4.139499e-27)
(3.878278e-05 -1.238092e-05 -8.555172e-29)
(3.619446e-05 -1.71507e-05 -5.9339e-29)
(3.294297e-05 -2.173752e-05 0)
(2.905448e-05 -2.604933e-05 -3.199683e-27)
(2.480248e-05 -2.99721e-05 -4.222667e-28)
(4.702875e-05 -2.688805e-06 -4.748814e-27)
(4.571878e-05 -8.436105e-06 -4.647212e-27)
(4.363285e-05 -1.414178e-05 -1.46723e-28)
(4.079719e-05 -1.954381e-05 -1.35463e-28)
(3.721869e-05 -2.470416e-05 0)
(3.299298e-05 -2.952989e-05 -3.417891e-27)
(2.828963e-05 -3.391069e-05 -2.389916e-28)
(5.286277e-05 -3.088362e-06 -5.341344e-27)
(5.141011e-05 -9.622502e-06 -1.041411e-26)
(4.911514e-05 -1.607849e-05 -4.99199e-27)
(4.600386e-05 -2.219927e-05 0)
(4.204166e-05 -2.805706e-05 1.494912e-27)
(3.753151e-05 -3.330692e-05 2.270774e-27)
(3.221427e-05 -3.826226e-05 5.384187e-28)
(5.94482e-05 -3.527239e-06 -6.012746e-27)
(5.783036e-05 -1.092534e-05 -1.168966e-26)
(5.529457e-05 -1.819961e-05 -1.11698e-26)
(5.187424e-05 -2.507204e-05 -5.117765e-27)
(4.759934e-05 -3.155049e-05 2.196978e-28)
(4.252233e-05 -3.759733e-05 -4.290313e-27)
(3.662299e-05 -4.309785e-05 3.496553e-27)
(6.686558e-05 -4.011381e-06 0)
(6.505798e-05 -1.236276e-05 -6.541222e-27)
(6.224737e-05 -2.054564e-05 -6.248231e-27)
(5.846415e-05 -2.827609e-05 -1.191767e-26)
(5.375333e-05 -3.5539e-05 0)
(4.812446e-05 -4.23196e-05 -4.851035e-27)
(4.15961e-05 -4.845973e-05 7.263987e-30)
(7.520425e-05 -4.545189e-06 7.594747e-27)
(7.318102e-05 -1.394799e-05 0)
(7.006333e-05 -2.313348e-05 0)
(6.587567e-05 -3.18119e-05 2.150127e-28)
(6.065948e-05 -3.995151e-05 6.476873e-27)
(5.439619e-05 -4.752451e-05 0)
(4.723805e-05 -5.437415e-05 -4.88113e-27)
(8.456192e-05 -5.13321e-06 1.70786e-26)
(8.229456e-05 -1.56936e-05 0)
(7.883676e-05 -2.598352e-05 0)
(7.420811e-05 -3.571509e-05 7.305138e-27)
(6.845702e-05 -4.487569e-05 1.367562e-26)
(6.149276e-05 -5.347455e-05 -6.29992e-27)
(5.380651e-05 -6.082107e-05 0)
(9.504416e-05 -5.779717e-06 9.597608e-27)
(9.250014e-05 -1.761125e-05 6.093252e-29)
(8.866512e-05 -2.91103e-05 9.0813e-27)
(8.355025e-05 -3.99817e-05 2.770275e-28)
(7.722604e-05 -5.017633e-05 3.579937e-28)
(6.971273e-05 -5.959543e-05 -7.143544e-27)
(6.102704e-05 -6.815643e-05 0)
(0.0001067651 -6.489153e-06 0)
(0.0001039082 -1.971474e-05 -1.049841e-26)
(9.965574e-05 -3.254132e-05 1.009748e-26)
(9.400714e-05 -4.467772e-05 0)
(8.703494e-05 -5.607518e-05 -8.108062e-27)
(7.877832e-05 -6.661014e-05 1.862349e-27)
(6.916294e-05 -7.625468e-05 1.071798e-27)
(0.000119847 -7.264869e-06 -1.209709e-26)
(0.0001166401 -2.201483e-05 -1.178943e-26)
(0.0001119269 -3.629185e-05 1.133095e-26)
(0.0001057038 -4.981037e-05 0)
(9.804214e-05 -6.252514e-05 -8.698067e-28)
(8.89673e-05 -7.430369e-05 -1.263898e-30)
(7.835714e-05 -8.513353e-05 1.196519e-27)
(0.0001344179 -8.110477e-06 -1.357069e-26)
(0.0001308341 -2.45142e-05 -1.321603e-26)
(0.0001256031 -4.037552e-05 1.272576e-26)
(0.0001187628 -5.539799e-05 0)
(0.0001103773 -6.955915e-05 0)
(0.000100489 -8.279338e-05 -1.029059e-26)
(8.890178e-05 -9.522569e-05 -1.097622e-27)
(0.0001506177 -9.014235e-06 -1.52343e-26)
(0.0001466333 -2.722249e-05 -1.491664e-26)
(0.0001408163 -4.481007e-05 0)
(0.000133309 -6.145352e-05 1.26871e-26)
(0.0001241368 -7.714316e-05 -1.075523e-27)
(0.0001133543 -9.171515e-05 -2.195011e-26)
(0.000100893 -0.0001048982 4.409257e-27)
(0.0001685711 -1.004877e-05 -1.702122e-26)
(0.0001642943 -3.004499e-05 0)
(0.0001577479 -4.957946e-05 -1.631762e-26)
(0.000149507 -6.802538e-05 1.473653e-26)
(0.0001394976 -8.545567e-05 -1.422378e-26)
(0.0001277195 -0.0001017888 -2.617492e-26)
(0.0001140141 -0.0001168471 -1.172228e-26)
(0.0001886964 -1.102158e-05 0)
(0.0001836713 -3.322969e-05 0)
(0.0001765729 -5.470492e-05 -3.580323e-26)
(0.0001675498 -7.510916e-05 0)
(0.0001566905 -9.443384e-05 -3.199901e-26)
(0.0001439895 -0.0001127053 -1.477035e-26)
(0.000129264 -0.0001299304 1.32889e-26)
(0.0002109572 -1.222746e-05 -2.140822e-26)
(0.0002050453 -3.682031e-05 2.053979e-26)
(0.0001976418 -5.991574e-05 1.981087e-26)
(0.0001877514 -8.255483e-05 0)
(0.0001758987 -0.0001040141 -1.799598e-26)
(0.0001623036 -0.0001242993 0)
(0.0001466103 -0.0001434521 1.107097e-26)
(0.0002356334 -1.342819e-05 -2.383557e-26)
(0.0002291838 -4.020883e-05 2.327995e-26)
(0.0002205088 -6.610004e-05 6.708647e-26)
(0.000210637 -9.01117e-05 4.362864e-26)
(0.0001974278 -0.0001141287 -1.859055e-26)
(0.0001829109 -0.0001367533 1.910595e-27)
(0.0001661431 -0.0001583307 -2.219438e-27)
(0.0002628439 -1.471319e-05 4.894676e-29)
(0.0002555792 -4.384854e-05 1.503272e-28)
(0.0002464112 -7.162846e-05 2.617463e-26)
(0.000235323 -9.84729e-05 4.621801e-26)
(0.0002216399 -0.0001246652 -2.619695e-26)
(0.0002062162 -0.0001499649 4.187804e-27)
(0.0001884699 -0.0001743484 9.792494e-27)
(0.0002927983 -1.604429e-05 -5.305663e-29)
(0.0002845398 -4.771938e-05 -1.630223e-28)
(0.0002747123 -7.796462e-05 2.714098e-26)
(0.0002624959 -0.0001075735 1.483159e-26)
(0.0002493172 -0.0001348744 -1.76222e-26)
(0.0002329117 -0.0001634574 1.935477e-26)
(0.0002140574 -0.0001912131 0)
(0.0003255449 -1.730564e-05 0)
(0.0003161818 -5.134681e-05 0)
(0.000305794 -8.370903e-05 3.152899e-26)
(0.0002936673 -0.0001152263 3.351735e-26)
(0.000279083 -0.0001468534 4.768065e-26)
(0.0002640882 -0.0001765094 4.550275e-26)
(0.0002433627 -0.0002086191 0)
(0.0003609095 -1.840277e-05 -1.199483e-28)
(0.0003503108 -5.453149e-05 3.585334e-28)
(0.0003393222 -8.893053e-05 1.212471e-27)
(0.0003271755 -0.0001224867 0)
(0.0003132095 -0.0001559232 6.539832e-26)
(0.0002974458 -0.0001902527 -5.267798e-27)
(0.0002768008 -0.0002257974 -1.269086e-26)
(0.0003983354 -1.914896e-05 -4.029032e-26)
(0.0003864438 -5.679427e-05 3.842522e-28)
(0.0003750893 -9.298997e-05 -3.89736e-26)
(0.0003633286 -0.0001289374 0)
(0.0003502957 -0.0001656879 4.136915e-26)
(0.0003339605 -0.0002044411 -3.823403e-28)
(0.0003159594 -0.0002411153 -6.418737e-26)
(0.0004366616 -1.932384e-05 -4.424342e-26)
(0.0004238134 -5.753222e-05 -4.328192e-26)
(0.0004125477 -9.506838e-05 -4.310084e-26)
(0.0004018966 -0.0001329694 -3.632689e-27)
(0.0003903263 -0.0001718487 -9.535124e-27)
(0.0003751049 -0.0002116459 2.203762e-26)
(0.0003559649 -0.0002545971 -2.939994e-26)
(0.0004743459 -1.893918e-05 0)
(0.0004613195 -5.610044e-05 4.66878e-26)
(0.0004509009 -9.4343e-05 4.721408e-26)
(0.0004416039 -0.0001336813 1.854615e-27)
(0.0004314517 -0.0001743736 -5.110549e-26)
(0.000417602 -0.0002172484 -6.274385e-27)
(0.0003969446 -0.0002649662 0)
(0.0005100563 -1.745796e-05 5.199802e-26)
(0.0004965926 -5.342231e-05 1.00358e-25)
(0.0004883024 -8.960217e-05 4.694943e-26)
(0.0004806137 -0.0001292289 1.024533e-25)
(0.0004715778 -0.0001706093 -5.613103e-26)
(0.000459303 -0.0002145693 4.44384e-26)
(0.000439079 -0.0002628125 6.538599e-30)
(0.0005406463 -1.521808e-05 5.507902e-26)
(0.0005289987 -4.748347e-05 -3.34371e-28)
(0.000520843 -8.253602e-05 0)
(0.0005164459 -0.0001188858 1.506883e-27)
(0.0005087239 -0.0001610596 1.113942e-25)
(0.0004966359 -0.0002082417 4.971109e-26)
(0.0004721785 -0.0002646891 -2.492985e-26)
(0.0005642428 -1.232777e-05 -5.757828e-26)
(0.0005548206 -3.95411e-05 5.532349e-28)
(0.0005489885 -7.060466e-05 1.027658e-27)
(0.0005446857 -0.0001064517 -1.262116e-25)
(0.0005407456 -0.000147028 2.210395e-25)
(0.0005255167 -0.0002027102 1.18828e-25)
(0.0004892048 -0.0002749998 7.506286e-26)
(0.0005788975 -8.88362e-06 -5.907453e-26)
(0.000572808 -3.000742e-05 0)
(0.0005690253 -5.630723e-05 1.661126e-27)
(0.0005684651 -9.013708e-05 2.750291e-27)
(0.0005607817 -0.0001385504 1.566462e-25)
(0.0005400927 -0.0002056734 7.812493e-26)
(0.0004899628 -0.0003042648 7.692888e-26)
(0.0005840884 -5.276551e-06 0)
(0.0005817283 -1.944836e-05 6.129514e-28)
(0.0005804766 -4.040374e-05 1.310659e-27)
(0.0005824702 -7.602323e-05 2.337559e-27)
(0.0005704949 -0.0001367705 1.298499e-25)
(0.0005356597 -0.0002264978 1.367642e-26)
(0.0004752715 -0.0003423515 -5.60346e-26)
(0.0005799924 -1.696571e-06 0)
(0.0005806061 -8.609981e-06 7.635093e-31)
(0.0005813466 -2.563014e-05 1.515469e-30)
(0.0005816949 -6.822015e-05 -5.065257e-33)
(0.0005642119 -0.0001465305 6.13391e-26)
(0.0005225131 -0.0002580259 5.760966e-26)
(0.0004500817 -0.0004108786 -1.401425e-25)
(0.0005660933 2.171416e-06 -5.76777e-26)
(0.0005699441 1.370816e-06 5.19477e-29)
(0.000570581 -1.808449e-05 -5.069699e-31)
(0.0005626556 -7.177563e-05 -6.117743e-32)
(0.0005407973 -0.0001646941 5.378809e-32)
(0.0004941902 -0.0002997268 1.17667e-31)
(0.0004215125 -0.0004766635 -1.701506e-26)
(0.0005414154 6.399611e-06 -5.508201e-26)
(0.0005474492 8.009897e-06 5.63136e-26)
(0.0005454522 -2.021233e-05 -8.214321e-28)
(0.0005319711 -8.699283e-05 5.25787e-26)
(0.0005025486 -0.0001980597 -5.210722e-26)
(0.0004521324 -0.0003527341 -2.566651e-29)
(0.0003816479 -0.0005611245 -7.276813e-29)
(0.0005053805 9.304517e-06 -2.453313e-31)
(0.0005103911 9.325958e-06 5.222378e-26)
(0.0005048915 -2.984839e-05 -1.119687e-27)
(0.0004888548 -0.0001112293 -6.671666e-27)
(0.0004557599 -0.0002372696 -6.822719e-27)
(0.0004036343 -0.0004127869 -2.03477e-33)
(0.0003308137 -0.0006572767 7.204657e-29)
(0.0004575098 8.785161e-06 -4.000261e-31)
(0.0004583374 3.40261e-06 -4.654396e-26)
(0.000448834 -4.657908e-05 3.448429e-31)
(0.0004302409 -0.0001420656 -4.694418e-26)
(0.0003955978 -0.0002854412 2.960478e-26)
(0.0003448556 -0.0004836297 -1.656371e-31)
(0.0002736959 -0.0007499156 4.574912e-29)
(0.0003981228 4.538628e-06 2.015833e-26)
(0.0003941627 -1.126158e-05 -3.961189e-26)
(0.0003802477 -7.110073e-05 7.381283e-26)
(0.0003566664 -0.0001798378 -3.393e-26)
(0.0003177672 -0.0003414427 -8.309215e-27)
(0.0002649099 -0.000559799 7.579502e-29)
(0.0002010066 -0.0008450485 -5.06486e-26)
(0.0003273895 -3.437038e-06 3.303165e-26)
(0.0003213807 -3.263276e-05 1.103093e-27)
(0.0003057132 -0.0001058962 6.011402e-26)
(0.0002741417 -0.0002301189 -2.435403e-26)
(0.0002276863 -0.0004107674 -1.70439e-26)
(0.0001675973 -0.0006488973 8.180985e-27)
(0.0001027237 -0.0009451384 -1.147514e-25)
(0.0002473122 -1.158742e-05 1.241968e-26)
(0.0002412524 -5.482805e-05 3.187363e-31)
(0.0002240719 -0.0001441565 2.122585e-27)
(0.0001902711 -0.0002896174 -4.170103e-27)
(0.0001388968 -0.0004912535 -1.006321e-26)
(7.20707e-05 -0.0007490472 -2.214923e-27)
(2.398755e-06 -0.001070354 -1.859726e-31)
(0.0001623636 -1.982222e-05 6.121131e-35)
(0.0001567269 -7.784296e-05 -2.092286e-31)
(0.0001400712 -0.0001835271 -6.736536e-31)
(0.0001088038 -0.0003501033 -3.690663e-27)
(6.111385e-05 -0.0005765525 -4.562382e-29)
(-1.353605e-06 -0.0008612567 2.553285e-26)
(-7.344566e-05 -0.001199224 -2.444317e-26)
(7.843786e-05 -2.736795e-05 3.847458e-27)
(7.414349e-05 -9.926634e-05 3.293825e-27)
(6.090558e-05 -0.0002197318 2.117614e-27)
(3.577804e-05 -0.0004051857 -5.678652e-27)
(-1.695093e-06 -0.00065244 -1.242072e-26)
(-4.946876e-05 -0.0009575829 2.764389e-26)
(-0.0001031883 -0.001307434 5.087774e-26)
(-3.971292e-06 -3.294606e-05 -4.394889e-28)
(-5.181208e-06 -0.0001150813 -1.948408e-27)
(-1.258567e-05 -0.0002468825 -3.334198e-27)
(-2.742945e-05 -0.0004454169 -3.578074e-27)
(-4.845151e-05 -0.0007055369 -4.671509e-26)
(-7.43644e-05 -0.001021978 -8.321375e-26)
(-0.0001029723 -0.001376952 4.028103e-26)
(-8.722912e-05 -3.453252e-05 1.223581e-28)
(-8.54905e-05 -0.0001210463 2.609554e-27)
(-8.672003e-05 -0.0002585497 -1.645402e-30)
(-8.986467e-05 -0.0004618388 -1.456985e-26)
(-9.298104e-05 -0.0007252414 1.953745e-26)
(-9.524774e-05 -0.001044091 2.87711e-26)
(-9.796986e-05 -0.001400996 1.707492e-29)
(-0.0001676734 -3.285441e-05 1.17177e-28)
(-0.0001648832 -0.0001175959 5.4141e-27)
(-0.000161147 -0.0002541857 1.334533e-26)
(-0.0001544936 -0.0004540013 6.562157e-27)
(-0.0001425515 -0.0007115308 1.757152e-26)
(-0.0001249487 -0.00102392 5.7061e-26)
(-0.0001040146 -0.001377242 7.985911e-26)
(-0.0002437188 -2.879773e-05 -8.129871e-33)
(-0.0002407576 -0.0001069464 -1.195405e-26)
(-0.0002334983 -0.0002375775 1.127494e-26)
(-0.0002194679 -0.0004290264 -9.256589e-31)
(-0.0001967493 -0.0006758948 1.617398e-27)
(-0.000166058 -0.0009763017 1.133965e-26)
(-0.0001290668 -0.001322188 1.387404e-31)
(-0.0003185842 -2.256963e-05 1.605131e-26)
(-0.0003165853 -9.107019e-05 -1.711598e-26)
(-0.0003080904 -0.0002131981 -1.305754e-29)
(-0.0002887443 -0.0003945865 1.857049e-26)
(-0.0002592362 -0.0006300219 5.169043e-27)
(-0.0002210097 -0.0009179773 -7.060186e-27)
(-0.0001804547 -0.001260081 1.724835e-25)
(-0.0003903158 -1.540963e-05 1.96481e-26)
(-0.0003908906 -7.318532e-05 7.884719e-31)
(-0.0003843684 -0.0001859579 -1.955554e-32)
(-0.0003648268 -0.0003556411 5.75165e-26)
(-0.0003317341 -0.0005833126 5.505837e-26)
(-0.0002883289 -0.0008611334 -2.826046e-26)
(-0.0002429968 -0.001179559 -1.224065e-25)
(-0.0004542126 -8.410594e-06 4.551893e-26)
(-0.0004588937 -5.522906e-05 -4.283729e-30)
(-0.000453235 -0.0001544972 4.277552e-26)
(-0.0004350417 -0.0003108744 1.487695e-32)
(-0.0003993704 -0.0005226013 -2.247033e-27)
(-0.0003510606 -0.0007889838 2.106212e-26)
(-0.0002976804 -0.001107038 -2.286491e-30)
(-0.0005070519 -3.540109e-06 5.073105e-26)
(-0.0005169397 -3.794147e-05 -4.239116e-28)
(-0.00051269 -0.0001253406 5.303281e-26)
(-0.0004951357 -0.0002670331 8.318062e-27)
(-0.0004584809 -0.0004623003 1.199421e-26)
(-0.0004050279 -0.0007134933 -4.133747e-26)
(-0.0003382993 -0.001025354 5.93431e-29)
(-0.0005491448 -1.638884e-06 -4.324023e-31)
(-0.0005639392 -2.709231e-05 -5.542405e-26)
(-0.000564251 -9.974318e-05 -3.598188e-27)
(-0.0005497138 -0.0002244435 -6.431395e-29)
(-0.0005137079 -0.0004004844 8.109013e-26)
(-0.0004562393 -0.0006300394 1.657913e-28)
(-0.0003826426 -0.0009290521 -6.599628e-31)
(-0.000580349 -3.346378e-06 -5.815989e-26)
(-0.0005976566 -2.355139e-05 -5.974406e-28)
(-0.0006036777 -8.079813e-05 5.97442e-26)
(-0.0005937787 -0.0001871261 -4.946516e-26)
(-0.0005630291 -0.0003460481 -4.236638e-31)
(-0.0005058097 -0.0005488866 -8.395163e-26)
(-0.0004307841 -0.0008081898 4.389452e-29)
(-0.0005995044 -7.086872e-06 -6.018514e-26)
(-0.000615901 -2.724476e-05 1.212712e-25)
(-0.0006271437 -7.105296e-05 6.085115e-26)
(-0.0006252601 -0.0001580065 -5.918062e-26)
(-0.0006042468 -0.000289052 -3.99975e-32)
(-0.0005535337 -0.0004695436 -7.505845e-26)
(-0.0004778753 -0.000701664 -7.735809e-26)
(-0.0006066159 -1.060365e-05 0)
(-0.000620174 -3.563297e-05 6.138442e-26)
(-0.0006336172 -7.239436e-05 7.771185e-35)
(-0.0006427397 -0.0001394043 -2.577015e-30)
(-0.0006312655 -0.0002513809 -5.58489e-30)
(-0.0005919459 -0.0004045109 5.268129e-26)
(-0.0005225552 -0.0006106753 -4.310889e-26)
(-0.000602374 -1.357362e-05 0)
(-0.0006133513 -4.409523e-05 -1.440979e-27)
(-0.0006255386 -8.256815e-05 -2.773855e-27)
(-0.0006394358 -0.0001379338 9.933224e-31)
(-0.000638018 -0.0002261098 5.98671e-26)
(-0.0006124501 -0.0003551613 5.568866e-26)
(-0.0005580622 -0.0005212927 9.53191e-26)
(-0.0005882721 -1.606498e-05 -5.902597e-26)
(-0.0005955344 -5.212937e-05 0)
(-0.0006049697 -9.475505e-05 0)
(-0.0006166037 -0.0001462646 -8.815169e-27)
(-0.0006220521 -0.0002174644 -9.283188e-26)
(-0.0006123174 -0.0003183876 -1.689736e-26)
(-0.0005721889 -0.0004637766 2.817142e-26)
(-0.0005653622 -1.836382e-05 -5.67285e-26)
(-0.0005688293 -5.840402e-05 -8.552571e-28)
(-0.0005747641 -0.0001041901 -1.5493e-27)
(-0.0005814423 -0.0001572617 -1.669241e-26)
(-0.0005883004 -0.0002180787 -1.329914e-25)
(-0.0005841937 -0.0003015052 1.732386e-26)
(-0.0005582605 -0.0004152737 -1.730296e-25)
(-0.0005357496 -2.001565e-05 0)
(-0.0005358736 -6.264372e-05 5.329411e-26)
(-0.0005376776 -0.0001103202 0)
(-0.0005409286 -0.0001622093 -4.547484e-27)
(-0.0005407237 -0.0002232446 -6.294832e-27)
(-0.0005354033 -0.0002941525 3.702825e-30)
(-0.0005180149 -0.0003810493 -9.226313e-26)
(-0.0005016255 -2.086605e-05 0)
(-0.0004990385 -6.484635e-05 -4.927646e-26)
(-0.0004980903 -0.0001113318 4.893788e-26)
(-0.0004952462 -0.0001636815 0)
(-0.0004893862 -0.0002213402 -1.197775e-26)
(-0.0004794159 -0.0002840975 1.400917e-26)
(-0.0004590065 -0.000356524 -3.917367e-26)
(-0.0004648343 -2.109773e-05 0)
(-0.000461309 -6.415093e-05 -1.373767e-25)
(-0.0004567516 -0.0001104227 -7.883269e-29)
(-0.0004497369 -0.000159973 -9.57036e-26)
(-0.0004397358 -0.0002121845 -1.152642e-26)
(-0.0004234575 -0.0002697857 3.996976e-26)
(-0.0003975769 -0.0003335332 -6.666852e-26)
(-0.0004275299 -2.049612e-05 4.289807e-26)
(-0.0004230105 -6.256406e-05 -4.293797e-26)
(-0.0004165799 -0.0001062569 2.03757e-29)
(-0.0004072507 -0.0001519121 -7.691525e-26)
(-0.0003933555 -0.0001996355 0)
(-0.0003735884 -0.0002489885 0)
(-0.0003464433 -0.0003003707 -4.412339e-26)
(-0.0003906682 -1.957382e-05 3.906839e-26)
(-0.0003857052 -5.9623e-05 -3.885569e-26)
(-0.0003783143 -0.0001006104 3.739136e-26)
(-0.0003676884 -0.0001421676 3.601703e-26)
(-0.0003518295 -0.0001855041 0)
(-0.0003300244 -0.0002301069 0)
(-0.0003034851 -0.0002708578 -3.967452e-26)
(-0.0003552281 -1.837117e-05 -3.566895e-26)
(-0.0003501288 -5.587465e-05 -3.637956e-26)
(-0.0003425324 -9.341924e-05 -1.255452e-27)
(-0.0003309891 -0.0001316811 3.070896e-26)
(-0.0003145831 -0.0001703221 1.308991e-26)
(-0.0002937469 -0.0002072036 -3.889898e-26)
(-0.0002662455 -0.000244468 1.834734e-26)
(-0.0003219268 -1.697428e-05 -3.243786e-26)
(-0.0003170273 -5.15113e-05 -3.52801e-28)
(-0.000309225 -8.612209e-05 1.168213e-27)
(-0.0002976732 -0.0001206537 1.648531e-27)
(-0.000281823 -0.000155149 0)
(-0.0002618282 -0.0001878698 -2.931502e-26)
(-0.0002363668 -0.00021977 2.266e-26)
(-0.0002910341 -1.561793e-05 0)
(-0.0002864104 -4.720173e-05 -6.368067e-28)
(-0.0002786842 -7.889352e-05 -1.075697e-27)
(-0.0002671334 -0.0001106097 6.275918e-26)
(-0.0002529465 -0.000140082 1.431907e-26)
(-0.0002335086 -0.0001699653 4.060158e-26)
(-0.0002109945 -0.0001972524 1.492552e-26)
(-0.0002627303 -1.419098e-05 -9.411989e-29)
(-0.0002583033 -4.299419e-05 -2.936867e-28)
(-0.0002509432 -7.155036e-05 0)
(-0.0002405072 -9.971624e-05 -7.780742e-29)
(-0.0002262464 -0.0001272266 2.216505e-26)
(-0.0002090065 -0.0001531807 2.037319e-26)
(-0.0001887879 -0.0001770212 -4.860561e-27)
(-0.0002368817 -1.288598e-05 2.376056e-26)
(-0.000232701 -3.910862e-05 -2.391077e-26)
(-0.0002255969 -6.531324e-05 4.039188e-26)
(-0.0002163884 -9.00943e-05 -4.794679e-26)
(-0.0002029775 -0.0001148607 1.835051e-26)
(-0.0001874162 -0.0001377687 0)
(-0.0001691494 -0.0001587912 4.364471e-27)
(-0.0002133407 -1.167562e-05 2.151314e-26)
(-0.0002092906 -3.557736e-05 -2.06755e-26)
(-0.0002032325 -5.867782e-05 1.992759e-26)
(-0.0001940744 -8.165937e-05 0)
(-0.0001822841 -0.0001034821 -1.799099e-26)
(-0.0001681957 -0.0001238316 0)
(-0.0001517235 -0.0001424866 1.493972e-26)
(-0.0001920403 -1.048183e-05 0)
(-0.0001885509 -3.192522e-05 0)
(-0.0001826535 -5.316436e-05 -3.630008e-26)
(-0.0001743764 -7.363017e-05 0)
(-0.0001637985 -9.307032e-05 -3.238777e-26)
(-0.000151006 -0.0001112764 -1.492448e-26)
(-0.0001360178 -0.0001280776 1.341808e-26)
(-0.0001727561 -9.521736e-06 -1.734901e-26)
(-0.0001697593 -2.872286e-05 0)
(-0.0001642864 -4.787462e-05 -1.601226e-26)
(-0.0001568045 -6.61956e-05 1.60226e-26)
(-0.0001472339 -8.358064e-05 -1.45772e-26)
(-0.0001356441 -9.97868e-05 -2.686307e-26)
(-0.0001220231 -0.000114526 -1.207165e-26)
(-0.0001555366 -8.514894e-06 -1.558983e-26)
(-0.0001526552 -2.591566e-05 -1.51721e-26)
(-0.0001477994 -4.303822e-05 0)
(-0.0001410491 -5.944087e-05 1.481963e-26)
(-0.0001324174 -7.498896e-05 1.027153e-27)
(-0.0001220039 -8.941021e-05 -2.544329e-26)
(-0.0001098397 -0.0001023648 -4.231374e-27)
(-0.0001399956 -7.640865e-06 -1.406091e-26)
(-0.0001373695 -2.325776e-05 -1.37313e-26)
(-0.0001330119 -3.861254e-05 1.326461e-26)
(-0.0001269157 -5.332531e-05 0)
(-0.0001191299 -6.728705e-05 0)
(-0.0001097247 -8.035315e-05 -1.089991e-26)
(-9.857708e-05 -9.258137e-05 1.945728e-26)
(-0.000126023 -6.82959e-06 -1.265526e-26)
(-0.0001236576 -2.083021e-05 -1.237239e-26)
(-0.0001197416 -3.458994e-05 1.194083e-26)
(-0.0001142395 -4.776603e-05 0)
(-0.0001072045 -6.025479e-05 8.24168e-28)
(-9.867836e-05 -7.187287e-05 1.352989e-30)
(-8.858047e-05 -8.256437e-05 -1.141284e-27)
(-0.0001134849 -6.090337e-06 0)
(-0.0001113746 -1.861583e-05 -1.114181e-26)
(-0.0001078525 -3.093556e-05 1.076841e-26)
(-0.0001028937 -4.272087e-05 0)
(-9.655079e-05 -5.388408e-05 -1.036144e-26)
(-8.886884e-05 -6.426731e-05 -1.768031e-27)
(-7.979895e-05 -7.381427e-05 -1.021243e-27)
(-0.0001022583 -5.41801e-06 1.027108e-26)
(-0.0001003832 -1.660533e-05 -5.659898e-29)
(-9.721832e-05 -2.76219e-05 9.610922e-27)
(-9.275648e-05 -3.814896e-05 -2.602164e-28)
(-8.704734e-05 -4.811236e-05 -3.217537e-28)
(-8.01093e-05 -5.738937e-05 -7.977168e-27)
(-7.197194e-05 -6.588311e-05 0)
(-9.222227e-05 -4.807928e-06 1.852325e-26)
(-9.055913e-05 -1.478246e-05 0)
(-8.771838e-05 -2.462251e-05 0)
(-8.370463e-05 -3.402518e-05 8.588539e-27)
(-7.854687e-05 -4.296065e-05 1.596363e-26)
(-7.215144e-05 -5.141753e-05 -7.181978e-27)
(-6.499819e-05 -5.87133e-05 0)
(-8.326749e-05 -4.25509e-06 8.360738e-27)
(-8.179473e-05 -1.313085e-05 -4.488669e-29)
(-7.924654e-05 -2.190389e-05 -7.488396e-29)
(-7.56361e-05 -3.027587e-05 -2.11956e-28)
(-7.09865e-05 -3.820534e-05 6.816897e-27)
(-6.527279e-05 -4.565027e-05 0)
(-5.864111e-05 -5.244001e-05 -5.846219e-27)
(-7.528993e-05 -3.754695e-06 -6.337421e-30)
(-7.398798e-05 -1.163662e-05 -7.468492e-27)
(-7.170488e-05 -1.94466e-05 -7.235268e-27)
(-6.846289e-05 -2.689593e-05 -1.367675e-26)
(-6.428917e-05 -3.3963e-05 0)
(-5.918553e-05 -4.06223e-05 -5.807888e-27)
(-5.316717e-05 -4.670446e-05 6.997701e-30)
(-6.819453e-05 -3.302083e-06 -6.840534e-27)
(-6.704488e-05 -1.028615e-05 -1.344171e-26)
(-6.500004e-05 -1.722754e-05 -1.305441e-26)
(-6.208795e-05 -2.384584e-05 -6.364607e-27)
(-5.832178e-05 -3.014401e-05 -2.072492e-28)
(-5.374655e-05 -3.607738e-05 -5.274135e-27)
(-4.833653e-05 -4.152162e-05 5.11087e-27)
(-6.189404e-05 -2.892798e-06 -6.211149e-27)
(-6.087857e-05 -9.065677e-06 -1.218834e-26)
(-5.904357e-05 -1.522783e-05 -5.901329e-27)
(-5.641229e-05 -2.112034e-05 0)
(-5.293784e-05 -2.681084e-05 -1.393552e-27)
(-4.890538e-05 -3.196229e-05 -2.136293e-27)
(-4.405243e-05 -3.686038e-05 -5.128437e-28)
(-5.630992e-05 -2.521188e-06 -5.654125e-27)
(-5.541179e-05 -7.957606e-06 -5.531725e-27)
(-5.37602e-05 -1.340803e-05 1.374779e-28)
(-5.138055e-05 -1.861007e-05 1.275296e-28)
(-4.826822e-05 -2.362255e-05 0)
(-4.450461e-05 -2.834835e-05 -4.443077e-27)
(-4.023986e-05 -3.267363e-05 2.28034e-28)
(-5.137213e-05 -2.18335e-06 -5.155662e-27)
(-5.05761e-05 -6.950994e-06 -5.049759e-27)
(-4.9086e-05 -1.175907e-05 8.037494e-29)
(-4.693374e-05 -1.635465e-05 5.599354e-29)
(-4.412898e-05 -2.080848e-05 0)
(-4.068701e-05 -2.502592e-05 -3.88716e-27)
(-3.685659e-05 -2.88914e-05 4.03559e-28)
(-4.70178e-05 -1.874731e-06 3.16351e-30)
(-4.630877e-05 -6.032819e-06 -9.255392e-27)
(-4.495608e-05 -1.025774e-05 3.495216e-29)
(-4.299586e-05 -1.430593e-05 4.889114e-29)
(-4.044431e-05 -1.825249e-05 0)
(-3.731111e-05 -2.201071e-05 0)
(-3.384152e-05 -2.548163e-05 0)
(-4.319144e-05 -1.591169e-06 0)
(-4.255418e-05 -5.190245e-06 -4.255829e-27)
(-4.131447e-05 -8.883006e-06 0)
(-3.950763e-05 -1.243797e-05 3.863752e-27)
(-3.717277e-05 -1.592332e-05 -1.086804e-28)
(-3.431086e-05 -1.927653e-05 -1.330204e-28)
(-3.115031e-05 -2.240354e-05 2.966905e-27)
(-3.984489e-05 -1.328143e-06 -3.991056e-27)
(-3.92627e-05 -4.411646e-06 0)
(-3.810686e-05 -7.623872e-06 5.124761e-29)
(-3.639471e-05 -1.076498e-05 3.166332e-27)
(-3.426831e-05 -1.378487e-05 -4.137755e-27)
(-3.163695e-05 -1.679189e-05 0)
(-2.87403e-05 -1.962195e-05 2.882219e-27)
(-3.693805e-05 -1.079966e-06 -3.697729e-27)
(-3.639269e-05 -3.678177e-06 0)
(-3.529532e-05 -6.43342e-06 2.152115e-29)
(-3.369024e-05 -9.146592e-06 3.067176e-29)
(-3.163854e-05 -1.186529e-05 -6.33068e-27)
(-2.92396e-05 -1.453314e-05 2.93251e-27)
(-2.657031e-05 -1.710591e-05 -2.670515e-27)
(-3.443899e-05 -8.418394e-07 0)
(-3.390994e-05 -2.979658e-06 -3.381166e-27)
(-3.284323e-05 -5.315347e-06 1.753836e-29)
(-3.130116e-05 -7.658189e-06 3.124441e-27)
(-2.933038e-05 -1.005969e-05 -2.940205e-27)
(-2.708284e-05 -1.246033e-05 2.72109e-27)
(-2.460007e-05 -1.482571e-05 1.398976e-30)
(-3.232196e-05 -6.070794e-07 0)
(-3.178451e-05 -2.297958e-06 -3.179794e-27)
(-3.070859e-05 -4.239422e-06 3.077284e-27)
(-2.917936e-05 -6.24565e-06 2.940101e-27)
(-2.726054e-05 -8.372144e-06 -2.715225e-27)
(-2.511724e-05 -1.055837e-05 6.920182e-29)
(-2.278908e-05 -1.276152e-05 2.302842e-27)
(-3.05736e-05 -3.696038e-07 0)
(-2.999207e-05 -1.61352e-06 0)
(-2.885776e-05 -3.177939e-06 2.898697e-27)
(-2.728983e-05 -4.883926e-06 -2.743849e-27)
(-2.537898e-05 -6.783824e-06 6.529609e-31)
(-2.330132e-05 -8.807931e-06 0)
(-2.109935e-05 -1.089737e-05 0)