/*--------------------------------*- C++ -*----------------------------------*\
| =========                 |                                                 |
| \\      /  F ield         | OpenFOAM: The Open Source CFD Toolbox           |
|  \\    /   O peration     | Version:  2206                                  |
|   \\  /    A nd           | Website:  www.openfoam.com                      |
|    \\/     M anipulation  |                                                 |
\*---------------------------------------------------------------------------*/
FoamFile
{
    version     2.0;
    format      ascii;
    arch        "LSB;label=32;scalar=64";
    class       surfaceVectorField;
    location    "2.4";
    object      Ufa;
}
// * * * * * * * * * * * * * * * * * * * * * * * * * * * * * * * * * * * * * //

dimensions      [0 1 -1 0 0 0 0];

internalField   nonuniform List<vector> 
26037
(
(9.558241e-06 -0.0001044939 2.36206e-23)
(-1.733645e-05 -0.0001003725 1.50591e-27)
(1.462366e-06 -5.059795e-05 6.283928e-25)
(-1.226232e-05 -5.462761e-05 9.479907e-27)
(-2.078773e-08 -2.848405e-05 -3.262568e-29)
(-4.684899e-06 -3.111552e-05 -3.269977e-29)
(-2.789161e-07 -1.874519e-05 -5.956057e-30)
(-2.246619e-06 -2.042891e-05 0)
(-3.611336e-07 -1.422315e-05 2.652266e-27)
(-1.400941e-06 -1.555137e-05 -5.955127e-30)
(-4.087104e-07 -1.121167e-05 -1.161201e-29)
(-1.025489e-06 -1.229374e-05 -7.194359e-30)
(-8.419653e-07 -9.793846e-06 -5.815082e-30)
(-4.400662e-07 -8.876762e-06 9.534173e-28)
(-4.04459e-05 -4.908297e-05 -2.088329e-32)
(-3.489475e-05 -3.37946e-05 6.699279e-31)
(-1.860174e-05 -3.516792e-05 -2.1084e-32)
(-2.107315e-05 -3.125136e-05 6.501524e-32)
(-6.907722e-06 -2.304251e-05 0)
(-9.277823e-06 -2.232057e-05 6.745221e-30)
(-3.368455e-06 -1.723593e-05 2.172885e-34)
(-4.903775e-06 -1.741923e-05 1.15675e-29)
(-2.065259e-06 -1.362231e-05 3.986651e-34)
(-3.036832e-06 -1.411238e-05 3.706993e-29)
(-1.458739e-06 -1.087609e-05 6.933494e-34)
(-2.091766e-06 -1.146071e-05 1.814432e-34)
(-1.576118e-06 -9.270058e-06 1.809209e-30)
(-1.14385e-06 -8.66867e-06 -5.828708e-30)
(-1.563945e-05 -1.577409e-05 7.568625e-31)
(-1.090804e-05 -8.6017e-06 1.743853e-25)
(-1.180457e-05 -1.835438e-05 6.82374e-30)
(-1.09951e-05 -1.418848e-05 -3.20082e-26)
(-7.258925e-06 -1.664956e-05 -2.403797e-27)
(-7.834224e-06 -1.472656e-05 7.925564e-30)
(-4.571968e-06 -1.429514e-05 -1.460985e-27)
(-5.331877e-06 -1.357365e-05 1.236337e-29)
(-3.063445e-06 -1.1951e-05 5.783328e-30)
(-3.706228e-06 -1.180473e-05 -4.137419e-29)
(-2.209175e-06 -9.854819e-06 -3.312526e-35)
(-2.704044e-06 -1.000481e-05 0)
(-2.081543e-06 -8.30097e-06 -2.296917e-30)
(-1.706634e-06 -7.999578e-06 5.831082e-30)
(-6.254672e-06 -7.003663e-06 3.012427e-31)
(-3.558504e-06 -3.455013e-06 -1.79553e-31)
(-7.042497e-06 -1.053355e-05 1.413747e-30)
(-5.777304e-06 -7.500448e-06 -9.096601e-27)
(-5.889402e-06 -1.16086e-05 1.278099e-28)
(-5.617539e-06 -9.61598e-06 -9.269241e-28)
(-4.464863e-06 -1.106795e-05 7.128938e-31)
(-4.639136e-06 -9.977234e-06 1.317692e-27)
(-3.346897e-06 -9.858594e-06 1.379519e-33)
(-3.654787e-06 -9.363411e-06 -6.907902e-30)
(-2.576437e-06 -8.451049e-06 1.715047e-35)
(-2.885754e-06 -8.305709e-06 -1.355739e-35)
(-2.333198e-06 -7.089086e-06 5.834713e-30)
(-2.059143e-06 -7.019627e-06 -5.836173e-30)
(-3.078614e-06 -3.947998e-06 -1.582386e-28)
(-1.471758e-06 -1.90784e-06 -1.475387e-31)
(-4.353297e-06 -6.565894e-06 -2.293228e-28)
(-3.266601e-06 -4.508428e-06 2.469459e-32)
(-4.360447e-06 -7.973803e-06 2.806329e-31)
(-3.836987e-06 -6.344817e-06 -2.383644e-32)
(-3.825184e-06 -8.251943e-06 -9.812712e-29)
(-3.677111e-06 -7.140844e-06 -9.885514e-29)
(-3.192905e-06 -7.801915e-06 -8.057352e-29)
(-3.250755e-06 -7.155095e-06 -4.2803e-28)
(-2.642523e-06 -6.943772e-06 -1.93949e-28)
(-2.787163e-06 -6.641701e-06 -5.847607e-30)
(-2.385211e-06 -5.813613e-06 -7.031493e-30)
(-2.216678e-06 -5.894082e-06 5.834684e-30)
(-1.658394e-06 -2.466146e-06 3.701799e-31)
(-7.089984e-07 -1.245366e-06 0)
(-2.745718e-06 -4.27255e-06 1.5052e-28)
(-1.939364e-06 -2.893262e-06 6.214036e-31)
(-3.152837e-06 -5.51473e-06 -2.062942e-28)
(-2.624869e-06 -4.285659e-06 -6.065296e-30)
(-3.101019e-06 -6.036431e-06 1.078366e-28)
(-2.829373e-06 -5.0876e-06 -5.654833e-30)
(-2.843071e-06 -5.982061e-06 -5.133252e-30)
(-2.751424e-06 -5.326283e-06 -1.209101e-28)
(-2.529319e-06 -5.505953e-06 2.634931e-29)
(-2.550642e-06 -5.129253e-06 -5.195638e-30)
(-2.314489e-06 -4.59296e-06 -1.179401e-29)
(-2.234328e-06 -4.751375e-06 2.119193e-28)
(-9.891209e-07 -1.671238e-06 2.508992e-31)
(-4.016298e-07 -9.081537e-07 -4.053079e-31)
(-1.813582e-06 -2.896146e-06 -5.414293e-30)
(-1.238487e-06 -1.963105e-06 -1.458334e-27)
(-2.29952e-06 -3.855502e-06 -1.26368e-27)
(-1.849728e-06 -2.958811e-06 -8.1624e-28)
(-2.478578e-06 -4.375189e-06 -4.893251e-30)
(-2.185116e-06 -3.61943e-06 -5.997875e-30)
(-2.458167e-06 -4.46841e-06 5.002216e-29)
(-2.301235e-06 -3.898677e-06 1.75982e-30)
(-2.334725e-06 -4.207544e-06 7.44594e-31)
(-2.27873e-06 -3.82441e-06 1.48959e-30)
(-2.185652e-06 -3.465333e-06 7.401286e-31)
(-2.171632e-06 -3.665998e-06 -8.306827e-34)
(-6.505962e-07 -1.199454e-06 -1.598846e-31)
(-2.61286e-07 -7.096054e-07 2.374539e-27)
(-1.273565e-06 -2.023899e-06 5.157509e-31)
(-8.582325e-07 -1.383769e-06 -2.600822e-31)
(-1.734167e-06 -2.720749e-06 2.729708e-31)
(-1.371679e-06 -2.078646e-06 7.483562e-31)
(-2.008766e-06 -3.145019e-06 6.857147e-31)
(-1.735738e-06 -2.568479e-06 7.549245e-31)
(-2.12183e-06 -3.254749e-06 1.426986e-30)
(-1.94591e-06 -2.794344e-06 -5.869949e-28)
(-2.12927e-06 -3.078792e-06 1.807168e-29)
(-2.035729e-06 -2.746045e-06 1.493138e-30)
(-2.046432e-06 -2.455674e-06 7.452459e-31)
(-2.075121e-06 -2.662702e-06 -5.167217e-30)
(-4.68669e-07 -8.935889e-07 -4.892243e-31)
(-1.90535e-07 -5.79274e-07 -1.946276e-27)
(-9.558472e-07 -1.437845e-06 -2.828254e-32)
(-6.461363e-07 -9.942049e-07 1.997255e-27)
(-1.36944e-06 -1.921265e-06 8.557753e-29)
(-1.07916e-06 -1.463348e-06 7.562775e-28)
(-1.674388e-06 -2.219414e-06 2.815331e-30)
(-1.434628e-06 -1.791918e-06 1.597385e-30)
(-1.859869e-06 -2.285673e-06 3.988506e-29)
(-1.687987e-06 -1.930683e-06 -7.564415e-28)
(-1.952896e-06 -2.123083e-06 7.472802e-31)
(-1.845663e-06 -1.85668e-06 7.470498e-31)
(-1.929125e-06 -1.580704e-06 0)
(-1.979744e-06 -1.755809e-06 -3.523991e-31)
(-3.677934e-07 -6.796466e-07 -8.902358e-32)
(-1.530982e-07 -4.862322e-07 3.827642e-31)
(-7.690337e-07 -1.019285e-06 -7.197088e-31)
(-5.270704e-07 -7.135009e-07 -4.720111e-31)
(-1.140394e-06 -1.330331e-06 5.829701e-31)
(-9.04374e-07 -1.008916e-06 -7.372305e-31)
(-1.450068e-06 -1.504192e-06 8.167148e-31)
(-1.243201e-06 -1.196789e-06 -1.210901e-27)
(-1.673867e-06 -1.501707e-06 -1.942513e-32)
(-1.515486e-06 -1.2403e-06 9.386015e-28)
(-1.821874e-06 -1.314452e-06 0)
(-1.714149e-06 -1.11495e-06 0)
(-1.847848e-06 -8.207331e-07 0)
(-1.907071e-06 -9.526151e-07 1.162776e-30)
(-3.121892e-07 -5.19899e-07 0)
(-1.335761e-07 -4.152242e-07 0)
(-6.620271e-07 -7.028804e-07 -4.893327e-31)
(-4.625428e-07 -4.98398e-07 4.398981e-31)
(-1.003316e-06 -8.732348e-07 2.915831e-31)
(-8.056997e-07 -6.551894e-07 1.660114e-27)
(-1.310627e-06 -9.332255e-07 8.102479e-31)
(-1.131345e-06 -7.21972e-07 -7.573516e-31)
(-1.555863e-06 -8.535298e-07 2.016594e-32)
(-1.413252e-06 -6.721773e-07 -1.131436e-27)
(-1.740082e-06 -6.21383e-07 0)
(-1.638324e-06 -4.840351e-07 0)
(-1.80764e-06 -1.527125e-07 8.909776e-31)
(-1.867466e-06 -2.39875e-07 3.327207e-31)
(-2.837514e-07 -3.935662e-07 4.397152e-31)
(-1.247589e-07 -3.577152e-07 0)
(-6.058441e-07 -4.505859e-07 3.933549e-33)
(-4.320056e-07 -3.239957e-07 -2.006362e-27)
(-9.299179e-07 -5.031499e-07 -1.976838e-30)
(-7.580865e-07 -3.656537e-07 -1.183506e-30)
(-1.236081e-06 -4.605572e-07 -1.344816e-29)
(-1.077884e-06 -3.268943e-07 1.542003e-27)
(-1.495809e-06 -3.02636e-07 -1.93308e-31)
(-1.367833e-06 -1.88812e-07 3.513504e-31)
(-1.705819e-06 -1.552415e-08 8.906709e-31)
(-1.612507e-06 6.641848e-08 -5.51261e-31)
(-1.808897e-06 4.453383e-07 9.312995e-28)
(-1.86487e-06 4.007899e-07 -4.710346e-29)
(-2.728343e-07 -2.880114e-07 -3.648266e-31)
(-1.228818e-07 -3.085226e-07 2.896135e-31)
(-5.838755e-07 -2.390586e-07 7.98453e-30)
(-4.242088e-07 -1.750784e-07 -3.648863e-31)
(-9.022161e-07 -1.898637e-07 -1.481387e-30)
(-7.464339e-07 -1.171391e-07 -1.494048e-30)
(-1.211843e-06 -5.409727e-08 -1.796508e-31)
(-1.068408e-06 1.589743e-08 -1.495082e-30)
(-1.484625e-06 1.803244e-07 -7.185837e-33)
(-1.368658e-06 2.371566e-07 -1.617436e-27)
(-1.7155e-06 5.271034e-07 -5.317089e-31)
(-1.630815e-06 5.606575e-07 1.298807e-27)
(-1.850055e-06 9.929757e-07 -1.109719e-27)
(-1.900055e-06 9.872082e-07 1.956752e-32)
(-2.740703e-07 -1.954707e-07 2.896694e-31)
(-1.258605e-07 -2.644081e-07 -1.923113e-27)
(-5.863823e-07 -5.325576e-08 -7.465856e-31)
(-4.327305e-07 -4.186331e-08 0)
(-9.087183e-07 8.703193e-08 7.979076e-32)
(-7.612186e-07 1.057835e-07 -2.240792e-30)
(-1.227433e-06 3.088474e-07 2.523765e-31)
(-1.090792e-06 3.251386e-07 9.482856e-30)
(-1.514999e-06 6.177382e-07 5.074567e-31)
(-1.404706e-06 6.250642e-07 -2.234681e-27)
(-1.765266e-06 1.026334e-06 3.612125e-32)
(-1.687606e-06 1.017974e-06 -4.911686e-31)
(-1.928961e-06 1.507179e-06 1.897802e-32)
(-1.972374e-06 1.535669e-06 -1.570582e-30)
(-2.843225e-07 -1.106917e-07 2.216824e-31)
(-1.325434e-07 -2.231329e-07 2.215802e-31)
(-6.071978e-07 1.170163e-07 -1.492445e-30)
(-4.53988e-07 8.242595e-08 2.238805e-31)
(-9.399891e-07 3.419853e-07 1.56843e-29)
(-7.977444e-07 3.140456e-07 -1.492826e-30)
(-1.268664e-06 6.427805e-07 -2.616125e-28)
(-1.14238e-06 6.154351e-07 1.771035e-27)
(-1.578526e-06 1.027887e-06 1.258599e-29)
(-1.474874e-06 9.921854e-07 1.41969e-29)
(-1.851262e-06 1.498833e-06 -5.08382e-31)
(-1.780341e-06 1.45404e-06 1.521016e-30)
(-2.044145e-06 2.00257e-06 1.519949e-27)
(-2.080761e-06 2.060827e-06 -1.043135e-30)
(-3.019948e-07 -2.99141e-08 2.237723e-31)
(-1.422546e-07 -1.830568e-07 0)
(-6.4423e-07 2.79244e-07 2.239256e-31)
(-4.858093e-07 2.027655e-07 -2.788609e-27)
(-9.982725e-07 5.854323e-07 1.234753e-30)
(-8.526796e-07 5.156709e-07 -7.462071e-31)
(-1.345176e-06 9.60206e-07 -5.228871e-29)
(-1.220484e-06 8.954636e-07 4.826711e-31)
(-1.679296e-06 1.422216e-06 3.057985e-30)
(-1.577487e-06 1.348498e-06 1.537195e-30)
(-1.973283e-06 1.957953e-06 -9.904227e-29)
(-1.90706e-06 1.881693e-06 1.520356e-30)
(-2.194573e-06 2.492021e-06 1.076186e-30)
(-2.22491e-06 2.575731e-06 2.595131e-30)
(-3.258337e-07 4.971941e-08 2.58346e-31)
(-1.546595e-07 -1.429497e-07 3.371938e-31)
(-6.939902e-07 4.389967e-07 -4.872767e-31)
(-5.269327e-07 3.229507e-07 -3.089304e-27)
(-1.074231e-06 8.250518e-07 2.837715e-29)
(-9.234379e-07 7.170603e-07 -2.239707e-30)
(-1.447209e-06 1.276686e-06 -7.648588e-31)
(-1.320391e-06 1.176462e-06 -1.507163e-30)
(-1.808848e-06 1.813852e-06 0)
(-1.707154e-06 1.706938e-06 0)
(-2.12847e-06 2.416093e-06 0)
(-2.065525e-06 2.312491e-06 -1.217907e-30)
(-2.379608e-06 2.987219e-06 -3.053481e-30)
(-2.404267e-06 3.09248e-06 -1.523328e-30)
(-3.554969e-07 1.303737e-07 8.628621e-29)
(-1.696769e-07 -1.018123e-07 -2.814045e-27)
(-7.56084e-07 6.007772e-07 4.80625e-29)
(-5.770351e-07 4.460814e-07 -7.822938e-31)
(-1.168965e-06 1.067818e-06 3.683851e-29)
(-1.009777e-06 9.234492e-07 -3.736192e-30)
(-1.574013e-06 1.598129e-06 -7.663689e-31)
(-1.442274e-06 1.464761e-06 -2.265385e-30)
(-1.967884e-06 2.212509e-06 -1.232065e-30)
(-1.864181e-06 2.075206e-06 0)
(-2.316797e-06 2.884006e-06 1.524794e-28)
(-2.255844e-06 2.75607e-06 -2.794947e-27)
(-2.599732e-06 3.498909e-06 -4.584817e-30)
(-2.619277e-06 3.622286e-06 1.797268e-28)
(-3.909228e-07 2.139836e-07 9.567526e-29)
(-1.8737e-07 -5.873775e-08 7.575711e-32)
(-8.30396e-07 7.684682e-07 5.476872e-29)
(-6.362512e-07 5.749067e-07 -3.817096e-27)
(-1.282382e-06 1.319615e-06 9.349531e-29)
(-1.111922e-06 1.13945e-06 -2.407515e-30)
(-1.725472e-06 1.931865e-06 -1.535455e-30)
(-1.586011e-06 1.766656e-06 -1.510886e-30)
(-2.156506e-06 2.626483e-06 2.064916e-31)
(-2.045416e-06 2.459206e-06 1.234027e-29)
(-2.53907e-06 3.371726e-06 -1.330768e-30)
(-2.474285e-06 3.218342e-06 1.571102e-29)
(-2.855578e-06 4.037157e-06 1.554056e-30)
(-2.871099e-06 4.175837e-06 2.111897e-28)
(-4.323706e-07 3.0227e-07 -5.479551e-31)
(-2.079429e-07 -1.286187e-08 -3.46847e-27)
(-9.174047e-07 9.45555e-07 -5.658689e-31)
(-7.052947e-07 7.12024e-07 -4.226861e-27)
(-1.414852e-06 1.585708e-06 -1.655395e-31)
(-1.231224e-06 1.369411e-06 -4.017693e-27)
(-1.899842e-06 2.28505e-06 1.22284e-29)
(-1.754334e-06 2.088308e-06 1.254348e-30)
(-2.365349e-06 3.055268e-06 -1.308917e-27)
(-2.258553e-06 2.868149e-06 1.381816e-29)
(-2.793668e-06 3.89001e-06 -5.382528e-28)
(-2.730647e-06 3.712682e-06 1.608157e-29)
(-3.151603e-06 4.612684e-06 1.392523e-30)
(-3.16115e-06 4.763997e-06 3.085873e-30)
(-4.804989e-07 3.969725e-07 -1.190836e-28)
(-2.317904e-07 3.661242e-08 -5.847656e-31)
(-1.018698e-06 1.13549e-06 -7.456022e-29)
(-7.854082e-07 8.599097e-07 -4.711687e-27)
(-1.570105e-06 1.871309e-06 1.365251e-30)
(-1.369657e-06 1.617585e-06 -4.536034e-27)
(-2.108921e-06 2.664952e-06 -1.508226e-28)
(-1.949787e-06 2.435627e-06 -4.305306e-27)
(-2.616998e-06 3.513376e-06 2.052941e-30)
(-2.506704e-06 3.308626e-06 1.532399e-30)
(-3.09348e-06 4.446054e-06 -1.227848e-30)
(-3.029017e-06 4.247303e-06 -3.572577e-27)
(-3.492525e-06 5.236708e-06 3.364746e-27)
(-3.495631e-06 5.397517e-06 2.855924e-28)
(-5.362858e-07 4.996271e-07 2.184023e-31)
(-2.595375e-07 9.042701e-08 5.501862e-31)
(-1.135899e-06 1.341556e-06 -8.293377e-29)
(-8.783754e-07 1.02091e-06 2.184342e-31)
(-1.748833e-06 2.181357e-06 -5.815699e-31)
(-1.52994e-06 1.888091e-06 2.577649e-31)
(-2.346211e-06 3.077329e-06 -8.412168e-31)
(-2.175178e-06 2.814928e-06 -4.824768e-27)
(-2.90792e-06 4.023311e-06 3.376788e-31)
(-2.792443e-06 3.794167e-06 1.991888e-30)
(-3.435128e-06 5.053218e-06 3.717007e-31)
(-3.370969e-06 4.836035e-06 3.448345e-31)
(-3.882692e-06 5.921325e-06 -4.222171e-27)
(-3.877572e-06 6.089009e-06 3.282596e-30)
(-6.011589e-07 6.117799e-07 5.502856e-31)
(-2.920244e-07 1.493346e-07 4.738387e-27)
(-1.271886e-06 1.566924e-06 0)
(-9.867657e-07 1.197306e-06 0)
(-1.955718e-06 2.521042e-06 1.482925e-30)
(-1.716291e-06 2.184957e-06 0)
(-2.620123e-06 3.529919e-06 -2.142631e-28)
(-2.436413e-06 3.232191e-06 5.446604e-27)
(-3.243191e-06 4.584928e-06 2.032811e-30)
(-3.12235e-06 4.329718e-06 5.321497e-27)
(-3.826402e-06 5.721006e-06 -1.23121e-31)
(-3.758931e-06 5.482231e-06 -4.548954e-31)
(-4.323313e-06 6.672381e-06 -1.223228e-31)
(-4.314146e-06 6.851986e-06 -3.269578e-30)
(-6.771036e-07 7.349259e-07 1.476963e-30)
(-3.304268e-07 2.139954e-07 5.230353e-27)
(-1.43057e-06 1.814743e-06 0)
(-1.114129e-06 1.391252e-06 7.459153e-31)
(-2.196343e-06 2.895399e-06 -7.2275e-31)
(-1.934393e-06 2.512137e-06 1.823599e-30)
(-2.937368e-06 4.030201e-06 2.279611e-28)
(-2.74118e-06 3.693427e-06 8.047711e-31)
(-3.627331e-06 5.207746e-06 -6.710682e-31)
(-3.50668e-06 4.92365e-06 5.105294e-27)
(-4.26088e-06 6.443504e-06 -4.577479e-31)
(-4.212373e-06 6.200934e-06 -3.246974e-27)
(-4.83708e-06 7.513108e-06 0)
(-4.811012e-06 7.703076e-06 5.522536e-32)
(-7.668555e-07 8.703785e-07 1.696359e-30)
(-3.763121e-07 2.849514e-07 9.503478e-31)
(-1.617271e-06 2.08796e-06 -1.122989e-28)
(-1.265043e-06 1.604558e-06 -6.496843e-31)
(-2.478508e-06 3.30936e-06 3.3504e-30)
(-2.191412e-06 2.873117e-06 6.888181e-27)
(-3.309364e-06 4.585316e-06 -2.824892e-28)
(-3.098502e-06 4.204176e-06 1.526669e-30)
(-4.083516e-06 5.902791e-06 9.108675e-31)
(-3.955303e-06 5.583423e-06 -6.425335e-27)
(-4.776303e-06 7.246514e-06 -6.913982e-31)
(-4.738617e-06 6.998848e-06 5.662584e-30)
(-5.43168e-06 8.452713e-06 3.29708e-30)
(-5.390454e-06 8.653393e-06 -3.045374e-30)
(-8.738263e-07 1.019182e-06 -1.394342e-30)
(-4.317775e-07 3.625619e-07 -1.387031e-30)
(-1.83841e-06 2.388932e-06 -2.808788e-32)
(-1.445489e-06 1.838483e-06 -7.816089e-27)
(-2.810579e-06 3.767014e-06 1.36859e-30)
(-2.496383e-06 3.270516e-06 2.98597e-30)
(-3.743536e-06 5.201133e-06 1.971766e-30)
(-3.51923e-06 4.768892e-06 0)
(-4.607872e-06 6.675311e-06 -6.829691e-28)
(-4.479125e-06 6.316536e-06 -1.1508e-30)
(-5.375787e-06 8.16735e-06 -8.68524e-28)
(-5.350072e-06 7.897282e-06 6.327782e-30)
(-6.116691e-06 9.511857e-06 6.623777e-30)
(-6.053689e-06 9.721928e-06 -8.208213e-32)
(-1.002668e-06 1.181893e-06 -3.129337e-30)
(-4.995636e-07 4.468943e-07 -6.840837e-27)
(-2.102586e-06 2.719185e-06 -1.262647e-31)
(-1.663232e-06 2.093422e-06 -3.771737e-30)
(-3.204093e-06 4.271352e-06 1.618676e-30)
(-2.8612e-06 3.705805e-06 8.37865e-27)
(-4.253803e-06 5.883019e-06 -3.120067e-30)
(-4.017784e-06 5.390632e-06 0)
(-5.218973e-06 7.534664e-06 7.556673e-28)
(-5.093834e-06 7.128203e-06 -3.120513e-30)
(-6.070307e-06 9.198692e-06 -9.327142e-28)
(-6.060921e-06 8.897914e-06 -1.447793e-30)
(-6.899867e-06 1.068999e-05 -2.200812e-29)
(-6.816621e-06 1.09217e-05 3.760296e-30)
(-1.159039e-06 1.358147e-06 -3.73086e-30)
(-5.835607e-07 5.376454e-07 -4.276038e-30)
(-2.420995e-06 3.07924e-06 -3.802132e-32)
(-1.928958e-06 2.368827e-06 -9.737453e-27)
(-3.673815e-06 4.823906e-06 1.992738e-30)
(-3.301481e-06 4.178902e-06 1.991177e-30)
(-4.856651e-06 6.634374e-06 0)
(-4.612499e-06 6.070534e-06 -9.467014e-31)
(-5.933484e-06 8.487773e-06 -1.444946e-30)
(-5.818521e-06 8.021557e-06 -3.163168e-30)
(-6.872797e-06 1.035141e-05 -2.643568e-29)
(-6.891023e-06 1.000705e-05 -6.567253e-27)
(-7.816487e-06 1.200979e-05 9.59573e-28)
(-7.678764e-06 1.223964e-05 6.110554e-27)
(-1.351494e-06 1.547025e-06 -5.559212e-28)
(-6.86884e-07 6.333932e-07 -7.419262e-27)
(-2.808821e-06 3.468046e-06 -3.213724e-30)
(-2.253343e-06 2.660325e-06 -3.221724e-30)
(-4.238951e-06 5.424228e-06 -9.45927e-31)
(-3.837066e-06 4.687583e-06 -4.241458e-30)
(-5.573046e-06 7.456092e-06 8.082178e-28)
(-5.326899e-06 6.807462e-06 1.013954e-26)
(-6.773905e-06 9.537579e-06 -3.49354e-30)
(-6.675979e-06 8.99666e-06 -5.508061e-30)
(-7.818998e-06 1.163626e-05 -1.148553e-27)
(-7.857389e-06 1.122515e-05 -1.023154e-26)
(-8.860417e-06 1.345971e-05 -1.077378e-26)
(-8.696204e-06 1.371566e-05 -5.322844e-27)
(-1.582368e-06 1.739895e-06 -2.387272e-30)
(-8.162144e-07 7.306055e-07 -2.365537e-30)
(-3.283689e-06 3.882703e-06 -4.25203e-30)
(-2.658487e-06 2.965166e-06 0)
(-4.92405e-06 6.069937e-06 3.8563e-28)
(-4.496479e-06 5.227398e-06 -1.202358e-26)
(-6.428317e-06 8.346244e-06 -1.300633e-30)
(-6.193103e-06 7.597672e-06 1.04383e-30)
(-7.757783e-06 1.068194e-05 -6.581315e-30)
(-7.696688e-06 1.005112e-05 -1.124658e-26)
(-8.894271e-06 1.304008e-05 -6.03739e-30)
(-8.982634e-06 1.255292e-05 -1.160175e-26)
(-1.004752e-05 1.506342e-05 3.761406e-31)
(-9.833831e-06 1.537592e-05 -3.514839e-30)
(-1.875148e-06 1.937063e-06 0)
(-9.837685e-07 8.292857e-07 -4.443642e-30)
(-3.875627e-06 4.315779e-06 -6.404924e-30)
(-3.166192e-06 3.27557e-06 2.542413e-30)
(-5.765311e-06 6.755411e-06 -6.380916e-30)
(-5.309307e-06 5.783465e-06 -1.450931e-26)
(-7.45978e-06 9.300648e-06 -5.582217e-30)
(-7.25418e-06 8.433502e-06 0)
(-8.919672e-06 1.191965e-05 -8.126149e-30)
(-8.925058e-06 1.118069e-05 -1.244404e-26)
(-1.013249e-05 1.45698e-05 -3.779628e-31)
(-1.030529e-05 1.398843e-05 -2.538066e-30)
(-1.140591e-05 1.681097e-05 1.011822e-26)
(-1.110818e-05 1.720003e-05 2.200449e-30)
(-2.254543e-06 2.146356e-06 -1.562436e-27)
(-1.204029e-06 9.29358e-07 -9.760364e-27)
(-4.598192e-06 4.740455e-06 5.521235e-30)
(-3.813543e-06 3.583124e-06 1.057396e-26)
(-6.806025e-06 7.470775e-06 2.962281e-30)
(-6.329343e-06 6.343505e-06 2.382122e-26)
(-8.71921e-06 1.031373e-05 -3.299463e-30)
(-8.56169e-06 9.292306e-06 1.015038e-29)
(-1.030863e-05 1.324688e-05 -3.298684e-30)
(-1.042233e-05 1.237761e-05 -3.753721e-30)
(-1.157533e-05 1.622397e-05 -4.099902e-30)
(-1.187936e-05 1.552892e-05 3.342134e-30)
(-1.296932e-05 1.870188e-05 -7.511227e-30)
(-1.256081e-05 1.91931e-05 4.244935e-27)
(-2.748812e-06 2.354215e-06 8.497347e-31)
(-1.492913e-06 1.02443e-06 -3.232809e-30)
(-5.520783e-06 5.161719e-06 1.708642e-29)
(-4.650195e-06 3.883606e-06 5.410456e-30)
(-8.087523e-06 8.164904e-06 2.274906e-29)
(-7.636779e-06 6.89795e-06 1.000699e-26)
(-1.027995e-05 1.137604e-05 -1.468124e-27)
(-1.022524e-05 1.017338e-05 3.172057e-26)
(-1.199196e-05 1.465882e-05 2.885472e-30)
(-1.227794e-05 1.363271e-05 -1.908308e-26)
(-1.327092e-05 1.800322e-05 -1.102552e-27)
(-1.377937e-05 1.717041e-05 1.01047e-29)
(-1.478566e-05 2.074087e-05 1.04322e-29)
(-1.418839e-05 2.135016e-05 4.717764e-27)
(-3.389384e-06 2.551453e-06 8.173103e-28)
(-1.870864e-06 1.108266e-06 5.90801e-34)
(-6.739895e-06 5.597566e-06 8.98302e-30)
(-5.738742e-06 4.17045e-06 -1.314087e-33)
(-9.726614e-06 8.855288e-06 -5.092959e-28)
(-9.306823e-06 7.443936e-06 1.100941e-29)
(-1.224277e-05 1.246779e-05 1.243227e-27)
(-1.231193e-05 1.105483e-05 -1.845866e-29)
(-1.406563e-05 1.614748e-05 -4.300837e-30)
(-1.457888e-05 1.491329e-05 -4.474265e-29)
(-1.52915e-05 1.99044e-05 -2.001209e-27)
(-1.609413e-05 1.890618e-05 4.477335e-30)
(-1.691511e-05 2.291916e-05 1.382133e-29)
(-1.603106e-05 2.367545e-05 -4.291921e-27)
(-4.216209e-06 2.72614e-06 -8.823307e-28)
(-2.359211e-06 1.174192e-06 -5.687756e-31)
(-8.296739e-06 6.009721e-06 2.006031e-30)
(-7.129291e-06 4.422297e-06 -7.471157e-31)
(-1.184056e-05 9.579028e-06 -8.200421e-29)
(-1.143709e-05 7.978675e-06 1.465593e-26)
(-1.467328e-05 1.352084e-05 2.401065e-27)
(-1.49637e-05 1.193915e-05 1.261702e-26)
(-1.663273e-05 1.770848e-05 2.262923e-27)
(-1.746888e-05 1.622902e-05 6.228576e-30)
(-1.771785e-05 2.192349e-05 -2.292632e-30)
(-1.89114e-05 2.070502e-05 3.879049e-26)
(-1.945598e-05 2.526479e-05 0)
(-1.813597e-05 2.615639e-05 -1.824566e-30)
(-5.267628e-06 2.869295e-06 0)
(-2.973524e-06 1.217491e-06 -1.133402e-30)
(-1.026208e-05 6.386411e-06 6.674973e-30)
(-8.856054e-06 4.634529e-06 1.494031e-30)
(-1.451095e-05 1.029842e-05 1.952108e-29)
(-1.405802e-05 8.501698e-06 9.785242e-30)
(-1.7712e-05 1.458985e-05 1.340434e-27)
(-1.818215e-05 1.28558e-05 1.282768e-29)
(-1.977334e-05 1.924683e-05 3.708893e-27)
(-2.103332e-05 1.761235e-05 1.434285e-26)
(-2.067374e-05 2.410563e-05 3.389398e-29)
(-2.244975e-05 2.267505e-05 2.595224e-29)
(-2.272484e-05 2.817601e-05 -2.207453e-29)
(-2.072422e-05 2.916475e-05 -6.139106e-30)
(-6.556499e-06 2.981737e-06 -2.018157e-27)
(-3.713534e-06 1.244263e-06 -6.845307e-30)
(-1.264558e-05 6.746176e-06 -5.112474e-28)
(-1.089652e-05 4.837648e-06 2.988753e-30)
(-1.771605e-05 1.104977e-05 3.109773e-30)
(-1.713469e-05 9.072955e-06 -5.277644e-30)
(-2.143889e-05 1.581585e-05 1.410873e-29)
(-2.199052e-05 1.389876e-05 0)
(-2.363857e-05 2.091971e-05 6.59669e-30)
(-2.524293e-05 1.916024e-05 4.24129e-26)
(-2.449185e-05 2.685853e-05 -2.003364e-26)
(-2.695058e-05 2.510884e-05 -6.874671e-29)
(-2.746995e-05 3.247965e-05 -1.858126e-28)
(-2.44137e-05 3.384086e-05 -3.522038e-26)
(-8.047268e-06 3.099231e-06 2.228772e-27)
(-4.550923e-06 1.286314e-06 -2.130904e-27)
(-1.537864e-05 7.160774e-06 -6.874565e-30)
(-1.315485e-05 5.108852e-06 -6.457351e-30)
(-2.140134e-05 1.191682e-05 -8.385286e-30)
(-2.056094e-05 9.777302e-06 -9.370503e-27)
(-2.577871e-05 1.722613e-05 1.607897e-29)
(-2.63122e-05 1.510547e-05 -6.771422e-30)
(-2.851758e-05 2.319392e-05 2.381067e-26)
(-3.04185e-05 2.113969e-05 -1.581693e-30)
(-2.998841e-05 3.083723e-05 -3.848235e-25)
(-3.34496e-05 2.877333e-05 1.466347e-25)
(-3.526417e-05 3.925066e-05 -2.657592e-28)
(-3.04815e-05 4.145603e-05 -1.593093e-25)
(-9.648318e-06 3.293499e-06 2.542353e-27)
(-5.413987e-06 1.393439e-06 -6.502854e-30)
(-1.833219e-05 7.722869e-06 -1.737994e-29)
(-1.546555e-05 5.533807e-06 4.636852e-28)
(-2.546356e-05 1.296115e-05 -1.619647e-29)
(-2.416943e-05 1.066775e-05 1.033337e-30)
(-3.093631e-05 1.900878e-05 -1.63145e-26)
(-3.116164e-05 1.660243e-05 -3.008228e-30)
(-3.523418e-05 2.658196e-05 -4.100184e-26)
(-3.701602e-05 2.389613e-05 -4.49328e-29)
(-3.854947e-05 3.685828e-05 -1.947071e-25)
(-4.245677e-05 3.39788e-05 -4.273156e-29)
(-4.713861e-05 4.844417e-05 -1.006396e-28)
(-4.111644e-05 5.25661e-05 -3.979108e-25)
(-1.118981e-05 3.618153e-06 6.845622e-30)
(-6.209476e-06 1.605421e-06 9.215409e-30)
(-2.131711e-05 8.485463e-06 -1.074658e-27)
(-1.763894e-05 6.173041e-06 -3.55166e-26)
(-2.986419e-05 1.430857e-05 4.898767e-27)
(-2.771756e-05 1.176362e-05 2.922236e-29)
(-3.722793e-05 2.148549e-05 -2.350953e-29)
(-3.653896e-05 1.854357e-05 3.317325e-29)
(-4.420087e-05 3.126088e-05 -6.993715e-26)
(-4.515689e-05 2.756835e-05 -7.40879e-26)
(-5.092301e-05 4.513548e-05 -1.856867e-29)
(-5.420255e-05 4.051116e-05 -5.418318e-30)
(-6.402651e-05 5.942145e-05 -1.963645e-29)
(-5.802907e-05 6.610727e-05 4.343951e-29)
(-1.256349e-05 4.124345e-06 1.978115e-29)
(-6.849669e-06 1.941953e-06 -2.380848e-26)
(-2.402549e-05 9.441734e-06 -1.096401e-26)
(-1.938023e-05 7.017456e-06 9.04668e-30)
(-3.443868e-05 1.602993e-05 2.872495e-29)
(-3.089321e-05 1.307687e-05 -9.057981e-31)
(-4.44655e-05 2.463328e-05 -5.29376e-30)
(-4.19631e-05 2.086382e-05 1.654227e-26)
(-5.512014e-05 3.680126e-05 -9.123755e-26)
(-5.387203e-05 3.17302e-05 1.674104e-29)
(-6.693787e-05 5.439605e-05 -6.481829e-30)
(-6.701085e-05 4.718291e-05 -2.639327e-26)
(-8.264006e-05 6.966241e-05 7.354252e-24)
(-8.090079e-05 8.164162e-05 -2.713855e-23)
(-1.359161e-05 4.805485e-06 -3.288248e-27)
(-7.223673e-06 2.392375e-06 -1.509142e-30)
(-2.612395e-05 1.058776e-05 -1.490207e-30)
(-2.041209e-05 8.033276e-06 1.437856e-30)
(-3.843635e-05 1.792221e-05 2.943622e-30)
(-3.313243e-05 1.453047e-05 3.486028e-30)
(-5.147895e-05 2.80505e-05 5.501356e-29)
(-4.630243e-05 2.324279e-05 1.134173e-25)
(-6.576683e-05 4.213414e-05 9.121154e-29)
(-6.096787e-05 3.547747e-05 -1.608478e-25)
(-8.240247e-05 6.513228e-05 1.736446e-28)
(-7.816967e-05 5.271872e-05 -3.69848e-29)
(-0.0001004908 7.770001e-05 2.225786e-28)
(-0.0001031758 0.0001095829 3.395002e-22)
(-1.402537e-05 5.613023e-06 -7.30819e-30)
(-7.184886e-06 2.916932e-06 4.309104e-26)
(-2.731267e-05 1.19167e-05 5.920201e-27)
(-2.049556e-05 9.156809e-06 2.89994e-30)
(-4.08249e-05 1.973833e-05 -7.029479e-29)
(-3.376284e-05 1.594459e-05 1.022157e-29)
(-5.585237e-05 3.072083e-05 -2.409498e-25)
(-4.800648e-05 2.522198e-05 -6.432104e-29)
(-7.314115e-05 4.91049e-05 -7.258596e-29)
(-6.460209e-05 3.815099e-05 4.048578e-30)
(-9.305799e-05 8.796384e-05 1.180434e-29)
(-8.605234e-05 5.616754e-05 -2.113912e-22)
(-0.0001145522 8.294673e-05 2.300553e-28)
(-0.0001178592 0.0001593901 1.18859e-21)
(-1.364105e-05 6.45507e-06 -1.055608e-29)
(-6.666817e-06 3.436158e-06 -1.055752e-29)
(-2.692736e-05 1.317422e-05 6.766877e-30)
(-1.940094e-05 1.022861e-05 5.639307e-30)
(-4.080116e-05 2.132356e-05 3.659619e-26)
(-3.231738e-05 1.718136e-05 1.337566e-29)
(-5.626845e-05 3.461824e-05 8.185832e-30)
(-4.667793e-05 2.657108e-05 9.859376e-30)
(-7.371361e-05 6.601103e-05 -9.354056e-29)
(-6.526808e-05 3.946232e-05 3.423709e-29)
(-9.582045e-05 0.0001298054 5.305899e-29)
(-8.621729e-05 5.77457e-05 7.228181e-29)
(-0.0001209274 8.567038e-05 1.219514e-21)
(-0.0001218483 0.0002285636 1.743262e-28)
(-1.237961e-05 7.188532e-06 5.628137e-30)
(-5.75988e-06 3.855216e-06 0)
(-2.479834e-05 1.424547e-05 1.33125e-26)
(-1.724113e-05 1.116711e-05 5.695799e-30)
(-3.786088e-05 2.34367e-05 7.13564e-30)
(-2.892889e-05 1.815592e-05 3.302769e-29)
(-5.267984e-05 4.885231e-05 3.527279e-29)
(-4.34076e-05 2.721161e-05 1.719079e-29)
(-6.934947e-05 0.0001019609 1.969453e-28)
(-6.407046e-05 3.969986e-05 3.19606e-22)
(-8.309959e-05 0.0001849813 8.606176e-21)
(-8.924138e-05 5.786097e-05 1.636587e-28)
(-0.0001050246 8.794486e-05 3.237392e-28)
(-0.0001136629 0.0003112689 -4.105035e-21)
(-1.054564e-05 7.785049e-06 2.226224e-32)
(-4.681634e-06 4.179749e-06 -9.312615e-30)
(-2.119967e-05 1.509589e-05 2.668038e-29)
(-1.432442e-05 1.198724e-05 -1.151086e-29)
(-3.205423e-05 3.116849e-05 1.602309e-22)
(-2.476932e-05 1.89225e-05 4.901398e-23)
(-4.480482e-05 7.831877e-05 7.80037e-29)
(-3.745963e-05 2.735678e-05 -2.265563e-30)
(-5.920991e-05 0.0001548849 6.33782e-29)
(-5.95543e-05 3.940955e-05 5.630835e-22)
(-7.298896e-05 0.0002610031 -2.245678e-29)
(-8.616158e-05 5.816845e-05 2.454915e-30)
(-0.0001131379 8.877167e-05 -1.199724e-28)
(-7.35158e-05 0.000398005 2.493972e-28)
(-8.431807e-06 8.344707e-06 2.073193e-27)
(-3.534018e-06 4.469028e-06 5.197131e-26)
(-1.6859e-05 1.919178e-05 2.302118e-30)
(-1.150112e-05 1.269401e-05 -2.3184e-23)
(-2.504754e-05 5.163197e-05 -4.973776e-30)
(-2.176282e-05 1.954904e-05 1.338796e-29)
(-3.193735e-05 0.0001170731 -4.000208e-29)
(-3.578533e-05 2.752815e-05 -4.773074e-22)
(-4.336572e-05 0.0002180036 -2.055512e-29)
(-4.480207e-05 3.961298e-05 -9.098615e-22)
(-5.214526e-05 0.0003489032 -9.175105e-29)
(-7.659128e-05 5.920115e-05 -1.104169e-28)
(-9.883542e-05 9.213839e-05 2.071006e-29)
(-6.039642e-05 0.0005128103 -8.215945e-21)
(-6.108736e-06 9.118386e-06 -2.124947e-29)
(-2.356979e-06 4.718882e-06 -8.917328e-30)
(-1.218359e-05 3.162905e-05 -1.172235e-29)
(-9.197719e-06 1.327551e-05 -7.046879e-30)
(-1.751945e-05 8.427745e-05 -1.651913e-29)
(-1.967188e-05 2.016978e-05 -9.236903e-30)
(-2.165886e-05 0.0001677546 -1.17165e-28)
(-3.413313e-05 2.805933e-05 -2.179135e-30)
(-1.710262e-05 0.0002844735 -8.944653e-21)
(-5.101269e-05 4.038305e-05 -1.010434e-28)
(-1.12801e-05 0.0004327739 1.644795e-30)
(-6.913544e-05 6.239857e-05 -1.102334e-28)
(-3.738748e-05 0.0001025376 2.76092e-21)
(-1.938895e-05 0.0006302097 1.175389e-28)
(-3.670016e-06 1.277206e-05 9.024786e-24)
(-1.537888e-06 4.876083e-06 -6.637889e-30)
(-7.281459e-06 5.175189e-05 1.773188e-22)
(-7.590096e-06 1.370037e-05 3.761281e-30)
(-9.809735e-06 0.0001231546 5.045252e-30)
(-1.797953e-05 2.08296e-05 -5.468457e-22)
(-1.031658e-05 0.0002268539 1.293146e-29)
(-3.194516e-05 2.912377e-05 1.128464e-21)
(-6.172662e-06 0.0003630268 -1.051102e-30)
(-4.78396e-05 4.281793e-05 -6.093892e-29)
(5.888848e-06 0.0005328465 7.114059e-28)
(-6.204293e-05 6.855931e-05 -8.818712e-29)
(-6.079019e-05 0.0001135969 3.399542e-21)
(4.871391e-05 0.0007395595 4.505454e-20)
(-1.272073e-06 2.079396e-05 -8.147366e-30)
(-1.01833e-06 4.911464e-06 -5.425549e-23)
(-2.452075e-06 7.505721e-05 -2.024495e-29)
(-6.477355e-06 1.392277e-05 3.931867e-30)
(-2.426163e-06 0.0001632466 -2.09246e-29)
(-1.6007e-05 2.154351e-05 -7.192123e-22)
(7.689925e-07 0.0002855063 -6.101301e-29)
(-2.938241e-05 3.103432e-05 -1.405293e-21)