/*--------------------------------*- C++ -*----------------------------------*\
| =========                 |                                                 |
| \\      /  F ield         | OpenFOAM: The Open Source CFD Toolbox           |
|  \\    /   O peration     | Version:  2206                                  |
|   \\  /    A nd           | Website:  www.openfoam.com                      |
|    \\/     M anipulation  |                                                 |
\*---------------------------------------------------------------------------*/
FoamFile
{
    version     2.0;
    format      ascii;
    arch        "LSB;label=32;scalar=64";
    class       surfaceVectorField;
    location    "2.4";
    object      Ufa_0;
}
// * * * * * * * * * * * * * * * * * * * * * * * * * * * * * * * * * * * * * //

dimensions      [0 1 -1 0 0 0 0];

internalField   nonuniform List<vector> 
26037
(
(9.560086e-06 -0.0001044266 2.382414e-23)
(-1.733477e-05 -0.0001003274 1.50439e-27)
(1.462245e-06 -5.056838e-05 6.263439e-25)
(-1.225761e-05 -5.460027e-05 9.370288e-27)
(-2.206638e-08 -2.84624e-05 -3.255685e-29)
(-4.683174e-06 -3.109342e-05 -3.263078e-29)
(-2.799693e-07 -1.872797e-05 -5.942715e-30)
(-2.246456e-06 -2.041142e-05 0)
(-3.620026e-07 -1.420735e-05 2.599606e-27)
(-1.401409e-06 -1.553557e-05 -5.941644e-30)
(-4.093433e-07 -1.119607e-05 -1.158032e-29)
(-1.026142e-06 -1.227829e-05 -7.021834e-30)
(-8.425452e-07 -9.778234e-06 -5.798127e-30)
(-4.403944e-07 -8.86094e-06 8.819097e-28)
(-4.044139e-05 -4.906814e-05 -2.008964e-32)
(-3.489416e-05 -3.378702e-05 6.2801e-31)
(-1.859477e-05 -3.514781e-05 -2.028273e-32)
(-2.106618e-05 -3.123516e-05 9.545392e-32)
(-6.904533e-06 -2.302439e-05 0)
(-9.273863e-06 -2.230408e-05 6.734314e-30)
(-3.367706e-06 -1.721984e-05 3.596251e-34)
(-4.902473e-06 -1.740402e-05 1.154642e-29)
(-2.065512e-06 -1.360684e-05 6.069332e-34)
(-3.036812e-06 -1.409745e-05 3.762021e-29)
(-1.45934e-06 -1.086062e-05 8.780404e-34)
(-2.092405e-06 -1.144566e-05 2.474197e-34)
(-1.576974e-06 -9.254629e-06 2.311176e-30)
(-1.14443e-06 -8.652868e-06 -5.809879e-30)
(-1.563499e-05 -1.576479e-05 7.447392e-31)
(-1.090504e-05 -8.596699e-06 1.767472e-25)
(-1.180034e-05 -1.834162e-05 6.842941e-30)
(-1.099141e-05 -1.417917e-05 -3.308478e-26)
(-7.256817e-06 -1.663592e-05 -2.239705e-27)
(-7.832141e-06 -1.471515e-05 7.958129e-30)
(-4.571393e-06 -1.428106e-05 -1.374914e-27)
(-5.331206e-06 -1.356092e-05 1.23617e-29)
(-3.063814e-06 -1.193648e-05 5.770192e-30)
(-3.706588e-06 -1.17911e-05 -4.3654e-29)
(-2.210072e-06 -9.839808e-06 -3.302481e-35)
(-2.705127e-06 -9.99046e-06 0)
(-2.082929e-06 -8.285914e-06 -2.96946e-30)
(-1.707637e-06 -7.983993e-06 5.811534e-30)
(-6.252285e-06 -6.998655e-06 3.291459e-31)
(-3.557472e-06 -3.452484e-06 -2.0178e-31)
(-7.040896e-06 -1.052557e-05 1.50798e-30)
(-5.776754e-06 -7.494857e-06 -9.122029e-27)
(-5.888761e-06 -1.159811e-05 1.32198e-28)
(-5.617595e-06 -9.607483e-06 -8.236999e-28)
(-4.465137e-06 -1.105568e-05 7.320198e-31)
(-4.639818e-06 -9.966397e-06 1.322352e-27)
(-3.347977e-06 -9.845129e-06 7.629211e-34)
(-3.656182e-06 -9.350984e-06 -6.91709e-30)
(-2.578015e-06 -8.436643e-06 -2.374824e-34)
(-2.887733e-06 -8.292093e-06 -1.232113e-35)
(-2.335402e-06 -7.074454e-06 5.815877e-30)
(-2.060799e-06 -7.004381e-06 -5.816235e-30)
(-3.079415e-06 -3.944914e-06 -1.539901e-28)
(-1.473294e-06 -1.906478e-06 -1.474972e-31)
(-4.354401e-06 -6.559799e-06 -2.303905e-28)
(-3.26895e-06 -4.504239e-06 5.524182e-32)
(-4.361837e-06 -7.964946e-06 3.946488e-31)
(-3.839452e-06 -6.337673e-06 3.527091e-32)
(-3.827001e-06 -8.240954e-06 -1.06398e-28)
(-3.679723e-06 -7.13121e-06 -6.262622e-30)
(-3.195209e-06 -7.789329e-06 -1.622541e-28)
(-3.253687e-06 -7.143549e-06 -4.876132e-28)
(-2.645134e-06 -6.929917e-06 -1.204863e-28)
(-2.7904e-06 -6.628667e-06 -5.829709e-30)
(-2.388491e-06 -5.799325e-06 -4.753728e-30)
(-2.219225e-06 -5.879152e-06 5.816103e-30)
(-1.661486e-06 -2.463707e-06 3.698397e-31)
(-7.120588e-07 -1.244283e-06 0)
(-2.749436e-06 -4.267331e-06 1.520498e-28)
(-1.944181e-06 -2.889592e-06 6.663934e-31)
(-3.156533e-06 -5.50679e-06 -2.117689e-28)
(-2.629765e-06 -4.27917e-06 -6.011516e-30)
(-3.10476e-06 -6.026231e-06 1.153677e-28)
(-2.834123e-06 -5.078609e-06 -5.607661e-30)
(-2.846953e-06 -5.970058e-06 -5.117216e-30)
(-2.756172e-06 -5.315242e-06 -1.659494e-29)
(-2.533237e-06 -5.492473e-06 -6.476375e-29)
(-2.555403e-06 -5.116551e-06 -5.179953e-30)
(-2.319056e-06 -4.578845e-06 -1.175185e-29)
(-2.237974e-06 -4.736641e-06 1.26878e-28)
(-9.939162e-07 -1.668954e-06 2.962055e-31)
(-4.057708e-07 -9.070944e-07 -4.931653e-31)
(-1.819589e-06 -2.891219e-06 -5.315753e-30)
(-1.24537e-06 -1.959516e-06 -1.31079e-27)
(-2.305486e-06 -3.847953e-06 -1.309204e-27)
(-1.85689e-06 -2.952507e-06 -6.951864e-28)
(-2.484351e-06 -4.365339e-06 -4.844086e-30)
(-2.192005e-06 -3.61064e-06 -5.984611e-30)
(-2.463809e-06 -4.456656e-06 5.93225e-29)
(-2.307886e-06 -3.887781e-06 1.885904e-30)
(-2.340151e-06 -4.194192e-06 7.420972e-31)
(-2.285178e-06 -3.811756e-06 1.484375e-30)
(-2.191685e-06 -3.451164e-06 7.370631e-31)
(-2.176556e-06 -3.651283e-06 2.682635e-35)
(-6.568373e-07 -1.197121e-06 -1.940714e-31)
(-2.663758e-07 -7.084833e-07 2.078804e-27)
(-1.281612e-06 -2.018936e-06 6.211605e-31)
(-8.669692e-07 -1.380042e-06 -3.322373e-31)
(-1.742263e-06 -2.713212e-06 3.252047e-31)
(-1.380938e-06 -2.07221e-06 7.379826e-31)
(-2.016544e-06 -3.135157e-06 7.766313e-31)
(-1.744691e-06 -2.559547e-06 7.52886e-31)
(-2.129298e-06 -3.242937e-06 1.514502e-30)
(-1.954485e-06 -2.783278e-06 -2.911408e-28)
(-2.136338e-06 -3.065305e-06 2.889081e-29)
(-2.043949e-06 -2.733171e-06 1.48743e-30)
(-2.054082e-06 -2.44121e-06 7.421591e-31)
(-2.081484e-06 -2.647784e-06 -5.143622e-30)
(-4.762691e-07 -8.911052e-07 -6.150336e-31)
(-1.965646e-07 -5.780502e-07 -1.598528e-27)
(-9.658112e-07 -1.432641e-06 -2.162086e-31)
(-6.566653e-07 -9.902112e-07 1.604911e-27)
(-1.379574e-06 -1.913452e-06 9.225948e-29)
(-1.090455e-06 -1.456558e-06 5.545867e-28)
(-1.68415e-06 -2.209248e-06 3.024611e-30)
(-1.445624e-06 -1.782578e-06 1.729177e-30)
(-1.86921e-06 -2.273528e-06 5.065375e-29)
(-1.698525e-06 -1.919176e-06 -4.083836e-28)
(-1.961709e-06 -2.109215e-06 7.44293e-31)
(-1.855747e-06 -1.84333e-06 7.440635e-31)
(-1.938516e-06 -1.565716e-06 0)
(-1.98769e-06 -1.740455e-06 -3.892393e-31)
(-3.767681e-07 -6.769481e-07 -1.156747e-31)
(-1.601184e-07 -4.848815e-07 5.022017e-31)
(-7.809119e-07 -1.0137e-06 -9.363669e-31)
(-5.394376e-07 -7.091496e-07 -6.181691e-31)
(-1.152572e-06 -1.322034e-06 6.440992e-31)
(-9.177469e-07 -1.00161e-06 -9.701647e-31)
(-1.461853e-06 -1.493481e-06 9.496191e-31)
(-1.256296e-06 -1.18683e-06 -7.698297e-28)
(-1.685163e-06 -1.488978e-06 -1.934839e-32)
(-1.528077e-06 -1.228114e-06 5.379457e-28)
(-1.83255e-06 -1.299963e-06 0)
(-1.72622e-06 -1.10088e-06 0)
(-1.859126e-06 -8.049849e-07 0)
(-1.916742e-06 -9.366023e-07 1.111464e-30)
(-3.226207e-07 -5.169349e-07 0)
(-1.416717e-07 -4.137244e-07 0)
(-6.759101e-07 -6.968031e-07 -6.516985e-31)
(-4.768754e-07 -4.936133e-07 6.335066e-31)
(-1.01763e-06 -8.64286e-07 2.801822e-31)
(-8.212748e-07 -6.472325e-07 1.121341e-27)
(-1.324544e-06 -9.217583e-07 9.636959e-31)
(-1.14667e-06 -7.112056e-07 -7.775887e-31)
(-1.569246e-06 -8.399838e-07 2.007747e-32)
(-1.428041e-06 -6.590913e-07 -6.719843e-28)
(-1.752771e-06 -6.060333e-07 0)
(-1.652547e-06 -4.69006e-07 0)
(-1.820979e-06 -1.359579e-07 7.492104e-31)
(-1.879023e-06 -2.229664e-07 3.82523e-31)
(-2.957698e-07 -3.902898e-07 6.332431e-31)
(-1.340415e-07 -3.560448e-07 0)
(-6.218933e-07 -4.43916e-07 1.115925e-32)
(-4.484873e-07 -3.187046e-07 -1.381108e-27)
(-9.465312e-07 -4.933963e-07 -2.33859e-30)
(-7.760552e-07 -3.569182e-07 -1.367944e-30)
(-1.252297e-06 -4.48136e-07 -2.677897e-29)
(-1.095629e-06 -3.151429e-07 9.764306e-28)
(-1.511458e-06 -2.880453e-07 -2.580707e-32)
(-1.385019e-06 -1.746077e-07 7.067457e-31)
(-1.72071e-06 9.32452e-10 7.489525e-31)
(-1.629085e-06 8.265031e-08 -7.218095e-31)
(-1.824504e-06 4.633596e-07 5.024536e-28)
(-1.8785e-06 4.188495e-07 -1.04283e-29)
(-2.866049e-07 -2.843752e-07 -1.420647e-31)
(-1.334846e-07 -3.066576e-07 4.958492e-31)
(-6.02304e-07 -2.316954e-07 6.277806e-31)
(-4.430653e-07 -1.692041e-07 -1.42088e-31)
(-9.213468e-07 -1.791529e-07 -1.680221e-30)
(-7.670342e-07 -1.07494e-07 -1.489342e-30)
(-1.230579e-06 -4.052315e-08 -1.922658e-31)
(-1.088811e-06 2.88161e-08 -1.695114e-30)
(-1.502764e-06 1.961941e-07 9.859551e-33)
(-1.388492e-06 2.527084e-07 -9.732779e-28)
(-1.732816e-06 5.449252e-07 -7.023987e-31)
(-1.649995e-06 5.783504e-07 7.496825e-28)
(-1.868166e-06 1.012543e-06 -6.195148e-28)
(-1.915973e-06 1.006695e-06 1.942853e-32)
(-2.897871e-07 -1.914223e-07 4.959448e-31)
(-1.379362e-07 -2.623217e-07 -1.254538e-27)
(-6.074418e-07 -4.50919e-08 -7.44106e-31)
(-4.542237e-07 -3.532149e-08 0)
(-9.306241e-07 9.886073e-08 -1.112706e-29)
(-7.847218e-07 1.164772e-07 -2.232774e-30)
(-1.248959e-06 3.237856e-07 6.885252e-31)
(-1.114117e-06 3.394093e-07 9.170534e-30)
(-1.535901e-06 6.351419e-07 7.415957e-31)
(-1.427492e-06 6.422088e-07 -1.367893e-27)
(-1.785266e-06 1.045801e-06 1.465541e-32)
(-1.709676e-06 1.03741e-06 -6.8597e-31)
(-1.949845e-06 1.528597e-06 -4.946495e-33)
(-1.990824e-06 1.556882e-06 -1.534428e-30)
(-3.022063e-07 -1.06173e-07 4.564252e-31)
(-1.462653e-07 -2.207946e-07 4.562149e-31)
(-6.311708e-07 1.26097e-07 -1.486913e-30)
(-4.784169e-07 8.972811e-08 5.502733e-31)
(-9.649501e-07 3.551012e-07 -3.777282e-30)
(-8.244592e-07 3.259344e-07 -1.487292e-30)
(-1.293295e-06 6.592899e-07 -4.677263e-30)
(-1.168934e-06 6.312456e-07 1.097133e-27)
(-1.60252e-06 1.047111e-06 1.275709e-29)
(-1.500947e-06 1.011189e-06 1.435804e-29)
(-1.874244e-06 1.520252e-06 -7.056702e-31)
(-1.80561e-06 1.475519e-06 1.508234e-30)
(-2.068094e-06 2.026166e-06 8.828687e-28)
(-2.102013e-06 2.084096e-06 -1.411273e-30)
(-3.222974e-07 -2.486082e-08 5.500075e-31)
(-1.578195e-07 -1.804318e-07 0)
(-6.714403e-07 2.893663e-07 5.503842e-31)
(-5.135168e-07 2.109337e-07 -1.736443e-27)
(-1.026607e-06 6.000098e-07 9.279477e-31)
(-8.829678e-07 5.289232e-07 -7.427225e-31)
(-1.373202e-06 9.785001e-07 -1.673078e-29)
(-1.250587e-06 9.130286e-07 1.803496e-31)
(-1.706671e-06 1.443533e-06 3.034273e-30)
(-1.607138e-06 1.369621e-06 1.526284e-30)
(-1.99955e-06 1.981646e-06 -4.644287e-29)
(-1.935846e-06 1.905524e-06 1.507579e-30)
(-2.221901e-06 2.518144e-06 8.374639e-31)
(-2.249256e-06 2.60141e-06 2.340414e-30)
(-3.488441e-07 5.538247e-08 9.984763e-31)
(-1.722892e-07 -1.399991e-07 6.794442e-31)
(-7.248226e-07 4.503101e-07 2.568444e-31)
(-5.583069e-07 3.321035e-07 -1.89918e-27)
(-1.106332e-06 8.413057e-07 1.236308e-29)
(-9.577194e-07 7.318685e-07 -2.228387e-30)
(-1.478987e-06 1.297052e-06 -7.599763e-31)
(-1.354455e-06 1.196049e-06 -1.496957e-30)
(-1.839941e-06 1.837558e-06 0)
(-1.740747e-06 1.73047e-06 0)
(-2.158352e-06 2.442397e-06 0)
(-2.098184e-06 2.339004e-06 -8.769586e-31)
(-2.410652e-06 3.016236e-06 -3.017017e-30)
(-2.432021e-06 3.120945e-06 -1.505486e-30)
(-3.815362e-07 1.367276e-07 5.918032e-29)
(-1.896178e-07 -9.849509e-08 -1.714881e-27)
(-7.909604e-07 6.134417e-07 3.359628e-29)
(-6.125016e-07 4.563432e-07 1.143628e-31)
(-1.205261e-06 1.085977e-06 1.86955e-29)
(-1.048498e-06 9.400103e-07 -3.715153e-30)
(-1.609948e-06 1.620849e-06 -7.608824e-31)
(-1.480719e-06 1.486629e-06 -2.247848e-30)
(-2.003078e-06 2.238927e-06 -8.871532e-31)
(-1.902107e-06 2.10145e-06 0)
(-2.350658e-06 2.913281e-06 8.495246e-29)
(-2.292773e-06 2.785618e-06 -1.655636e-27)
(-2.634853e-06 3.531202e-06 -4.527869e-30)
(-2.650772e-06 3.653929e-06 1.067964e-28)
(-4.203424e-07 2.211115e-07 6.52394e-29)
(-2.098945e-07 -5.501245e-08 9.017597e-31)
(-8.697669e-07 7.826455e-07 3.850315e-29)
(-6.762715e-07 5.864018e-07 -2.300969e-27)
(-1.323311e-06 1.339905e-06 5.256909e-29)
(-1.155548e-06 1.157956e-06 -1.878322e-30)
(-1.76597e-06 1.957219e-06 -1.523123e-30)
(-1.629243e-06 1.791045e-06 -1.498752e-30)
(-2.196209e-06 2.655941e-06 5.797799e-31)
(-2.088037e-06 2.488434e-06 1.220832e-29)
(-2.577306e-06 3.404351e-06 -9.415906e-31)
(-2.515925e-06 3.251286e-06 1.588432e-29)
(-2.895148e-06 4.073109e-06 1.528416e-30)
(-2.90668e-06 4.211055e-06 1.292535e-28)
(-4.655536e-07 3.102531e-07 9.642856e-31)
(-2.333515e-07 -8.688241e-09 -2.076302e-27)
(-9.61748e-07 9.614003e-07 1.024132e-30)
(-7.503712e-07 7.248728e-07 -2.525719e-27)
(-1.460849e-06 1.608337e-06 3.508295e-31)
(-1.280251e-06 1.390044e-06 -2.393223e-27)
(-1.945269e-06 2.313284e-06 1.209765e-29)
(-1.802767e-06 2.115432e-06 1.791723e-30)
(-2.409987e-06 3.088055e-06 -7.650309e-28)
(-2.306238e-06 2.900587e-06 1.366752e-29)
(-2.836711e-06 3.92638e-06 -3.245519e-28)
(-2.777421e-06 3.749366e-06 1.635721e-29)
(-3.195969e-06 4.652659e-06 9.530333e-31)
(-3.201156e-06 4.803175e-06 3.039746e-30)
(-5.178656e-07 4.058889e-07 -7.790119e-29)
(-2.604156e-07 4.127335e-08 -8.858128e-32)
(-1.068534e-06 1.15315e-06 -5.088398e-29)
(-8.360933e-07 8.742307e-07 -2.796607e-27)
(-1.621638e-06 1.896466e-06 3.06325e-30)
(-1.42463e-06 1.640527e-06 -2.686723e-27)
(-2.159656e-06 2.69627e-06 -9.216061e-29)
(-2.003889e-06 2.465712e-06 -2.541519e-27)
(-2.666866e-06 3.549699e-06 2.498297e-30)
(-2.559801e-06 3.344513e-06 1.513152e-30)
(-3.141605e-06 4.486458e-06 -1.160323e-30)
(-3.081195e-06 4.288011e-06 -2.088234e-27)
(-3.542016e-06 5.281094e-06 1.968877e-27)
(-3.540349e-06 5.441018e-06 1.783457e-28)
(-5.78302e-07 5.095544e-07 9.000165e-31)
(-2.917487e-07 9.56131e-08 -8.219768e-32)
(-1.191807e-06 1.361186e-06 -5.78481e-29)
(-9.35282e-07 1.036822e-06 9.001481e-31)
(-1.806459e-06 2.209264e-06 1.318418e-30)
(-1.591472e-06 1.913535e-06 9.10163e-31)
(-2.402753e-06 3.112016e-06 4.084676e-31)
(-2.235508e-06 2.848248e-06 -2.838899e-27)
(-2.963416e-06 4.063544e-06 8.631406e-31)
(-2.851471e-06 3.833891e-06 1.307602e-30)
(-3.488697e-06 5.098043e-06 8.99009e-31)
(-3.428972e-06 4.881201e-06 8.814313e-31)
(-3.937784e-06 5.970725e-06 -2.4748e-27)
(-3.92735e-06 6.137327e-06 3.627076e-30)
(-6.483415e-07 6.227955e-07 -8.221253e-32)
(-3.282349e-07 1.550838e-07 2.78256e-27)
(-1.334512e-06 1.588681e-06 0)
(-1.050582e-06 1.214934e-06 0)
(-2.020048e-06 2.55194e-06 1.464207e-30)
(-1.785072e-06 2.213117e-06 0)
(-2.683029e-06 3.568316e-06 -1.376456e-28)
(-2.503597e-06 3.269061e-06 3.19982e-27)
(-3.304829e-06 4.629537e-06 1.334466e-30)
(-3.187874e-06 4.37373e-06 3.146926e-27)
(-3.885965e-06 5.770893e-06 4.240755e-31)
(-3.823304e-06 5.532468e-06 2.362849e-31)
(-4.384787e-06 6.727757e-06 4.213264e-31)
(-4.369556e-06 6.905989e-06 -2.195031e-30)
(-7.300379e-07 7.471125e-07 4.949617e-32)
(-3.711069e-07 2.203488e-07 3.05637e-27)
(-1.500649e-06 1.838805e-06 0)
(-1.185653e-06 1.410735e-06 7.405516e-31)
(-2.268082e-06 2.929573e-06 -1.496051e-30)
(-2.011248e-06 2.543263e-06 8.685915e-31)
(-3.007273e-06 4.07273e-06 1.457285e-28)
(-2.815997e-06 3.734243e-06 7.187955e-33)
(-3.695709e-06 5.257345e-06 -1.46895e-30)
(-3.57945e-06 4.972531e-06 2.948368e-27)
(-4.327286e-06 6.49937e-06 2.377665e-31)
(-4.283949e-06 6.257066e-06 -1.804202e-27)
(-4.906004e-06 7.575768e-06 0)
(-4.872962e-06 7.76408e-06 -4.757295e-31)
(-8.262249e-07 8.838315e-07 8.861189e-31)
(-4.22007e-07 2.919548e-07 1.459492e-31)
(-1.695689e-06 2.114542e-06 -8.087855e-29)
(-1.345233e-06 1.626058e-06 4.54506e-31)
(-2.558557e-06 3.347177e-06 2.371072e-30)
(-2.277383e-06 2.907524e-06 4.002697e-27)
(-3.387151e-06 4.632538e-06 -1.834678e-28)
(-3.182014e-06 4.249472e-06 1.502512e-30)
(-4.159541e-06 5.958181e-06 1.650846e-30)
(-4.036441e-06 5.638004e-06 -3.728918e-27)
(-4.850475e-06 7.309399e-06 1.00674e-31)
(-4.818525e-06 7.061996e-06 6.271981e-30)
(-5.509149e-06 8.524061e-06 3.200896e-30)
(-5.459833e-06 8.722641e-06 -3.558518e-30)
(-9.404518e-07 1.034012e-06 -2.855002e-31)
(-4.831301e-07 3.702618e-07 -3.664061e-31)
(-1.926284e-06 2.418296e-06 1.539216e-32)
(-1.535525e-06 1.862172e-06 -4.538049e-27)
(-2.900145e-06 3.808953e-06 3.013892e-31)
(-2.592816e-06 3.308556e-06 7.185079e-31)
(-3.830526e-06 5.253853e-06 2.847923e-30)
(-3.612876e-06 4.819292e-06 0)
(-4.69301e-06 6.737704e-06 -4.447723e-28)
(-4.570223e-06 6.377827e-06 -1.984116e-31)
(-5.459162e-06 8.238856e-06 -5.536866e-28)
(-5.440037e-06 7.968883e-06 6.164975e-30)
(-6.204179e-06 9.593307e-06 6.419573e-30)
(-6.131848e-06 9.801093e-06 -6.999598e-32)
(-1.077552e-06 1.198205e-06 -8.594336e-31)
(-5.573325e-07 4.553232e-07 -3.975499e-27)
(-2.201326e-06 2.751591e-06 -7.63275e-32)
(-1.76459e-06 2.119439e-06 -1.116538e-30)
(-3.304749e-06 4.317908e-06 4.174145e-31)
(-2.969824e-06 3.747783e-06 4.852024e-27)
(-4.351697e-06 5.942059e-06 -3.04403e-30)
(-4.123414e-06 5.446693e-06 0)
(-5.315033e-06 7.605227e-06 4.979327e-28)
(-5.196831e-06 7.197071e-06 -3.044466e-30)
(-6.16458e-06 9.28009e-06 -6.014256e-28)
(-6.1628e-06 8.979002e-06 -3.376986e-31)
(-6.998616e-06 1.078199e-05 -2.222497e-29)
(-6.904757e-06 1.101156e-05 2.874157e-30)
(-1.243405e-06 1.375999e-06 -1.177883e-30)
(-6.486356e-07 5.467997e-07 -1.837948e-30)
(-2.532398e-06 3.114875e-06 1.588652e-32)
(-2.043491e-06 2.397213e-06 -5.678138e-27)
(-3.787571e-06 4.875449e-06 6.398262e-31)
(-3.424517e-06 4.224969e-06 6.393249e-31)
(-4.967539e-06 6.700338e-06 0)
(-4.732466e-06 6.132589e-06 -2.315702e-30)
(-6.042455e-06 8.567232e-06 -3.368981e-31)
(-5.935774e-06 8.09854e-06 -3.06828e-30)
(-6.979382e-06 1.044297e-05 -2.541341e-29)
(-7.006903e-06 1.009812e-05 -3.666883e-27)
(-7.927722e-06 1.211182e-05 2.149578e-28)
(-7.777058e-06 1.233842e-05 4.209658e-27)
(-1.446843e-06 1.566382e-06 -3.481403e-28)
(-7.602133e-07 6.431977e-07 -4.369793e-27)
(-2.935167e-06 3.50692e-06 -1.623286e-30)
(-2.383327e-06 2.690918e-06 -1.627326e-30)
(-4.368372e-06 5.48087e-06 -2.313808e-30)
(-3.977348e-06 4.737608e-06 -2.501902e-30)
(-5.699545e-06 7.529245e-06 5.326025e-28)
(-5.464192e-06 6.875482e-06 5.892587e-27)
(-6.898207e-06 9.626256e-06 -1.018297e-30)
(-6.810437e-06 9.081938e-06 -3.889698e-30)
(-7.939571e-06 1.173775e-05 -7.498516e-28)
(-7.989997e-06 1.13267e-05 -5.873078e-27)
(-8.986261e-06 1.357264e-05 -6.153637e-27)
(-8.803489e-06 1.382006e-05 -3.328334e-27)
(-1.690307e-06 1.760502e-06 -9.369479e-31)
(-8.988121e-07 7.408573e-07 -9.284177e-31)
(-3.427853e-06 3.924545e-06 -2.508138e-30)
(-2.806646e-06 2.997543e-06 0)
(-5.072401e-06 6.131412e-06 2.636386e-28)
(-4.657522e-06 5.280834e-06 -7.117686e-27)
(-6.573759e-06 8.426472e-06 -1.362776e-30)
(-6.351445e-06 7.671096e-06 -5.390149e-31)
(-7.900739e-06 1.07802e-05 -2.245927e-30)
(-7.851949e-06 1.014429e-05 -6.548844e-27)
(-9.032363e-06 1.315317e-05 -1.937376e-30)
(-9.135395e-06 1.266506e-05 -6.723125e-27)
(-1.019145e-05 1.518881e-05 2.124063e-31)
(-9.955321e-06 1.549186e-05 -1.486784e-31)
(-1.997542e-06 1.958492e-06 0)
(-1.077027e-06 8.396804e-07 -2.647493e-30)
(-4.040908e-06 4.35987e-06 -2.545063e-30)
(-3.335343e-06 3.3089e-06 3.326021e-31)
(-5.936561e-06 6.820885e-06 -2.535523e-30)
(-5.495268e-06 5.839124e-06 -8.742931e-27)
(-7.62815e-06 9.387092e-06 -2.152413e-30)
(-7.438115e-06 8.511076e-06 0)
(-9.084952e-06 1.20268e-05 -3.104559e-30)
(-9.105306e-06 1.128049e-05 -7.334295e-27)
(-1.029134e-05 1.469433e-05 -2.290176e-31)
(-1.048179e-05 1.411012e-05 -9.498822e-31)
(-1.157096e-05 1.694833e-05 5.647065e-27)
(-1.12467e-05 1.732851e-05 7.345792e-31)
(-2.394049e-06 2.167981e-06 -9.471494e-28)
(-1.309719e-06 9.394007e-07 -6.126484e-27)
(-4.788304e-06 4.785361e-06 1.152164e-30)
(-4.00687e-06 3.615901e-06 6.65168e-27)
(-7.005016e-06 7.538691e-06 8.178945e-31)
(-6.544834e-06 6.399368e-06 1.480444e-26)
(-8.915277e-06 1.040477e-05 -1.365108e-30)
(-8.776582e-06 9.371856e-06 5.428639e-30)
(-1.050033e-05 1.336131e-05 -1.364785e-30)
(-1.063247e-05 1.2482e-05 2.143703e-31)
(-1.175824e-05 1.635858e-05 -5.375714e-30)
(-1.208358e-05 1.565836e-05 3.171473e-30)
(-1.315822e-05 1.884985e-05 -8.589242e-30)
(-1.271923e-05 1.933339e-05 2.716712e-27)
(-2.908025e-06 2.374805e-06 3.758924e-31)
(-1.612837e-06 1.033328e-06 -1.244451e-30)
(-5.739428e-06 5.205264e-06 7.388193e-30)
(-4.871422e-06 3.913657e-06 2.926891e-30)
(-8.319331e-06 8.232433e-06 1.069637e-29)
(-7.88657e-06 6.950723e-06 6.507213e-27)
(-1.050934e-05 1.146922e-05 -9.640927e-28)
(-1.047727e-05 1.025152e-05 1.964352e-26)
(-1.221489e-05 1.477833e-05 4.749353e-30)
(-1.252411e-05 1.373877e-05 -1.182272e-26)
(-1.34814e-05 1.814614e-05 -7.075412e-28)
(-1.401671e-05 1.730539e-05 9.559779e-30)
(-1.500246e-05 2.089842e-05 9.755718e-30)
(-1.436787e-05 2.150059e-05 2.958096e-27)
(-3.571364e-06 2.569266e-06 4.827619e-28)
(-2.007239e-06 1.114916e-06 8.254146e-34)
(-6.99209e-06 5.63671e-06 6.205334e-30)
(-5.993207e-06 4.194807e-06 -3.467206e-34)
(-9.996582e-06 8.918364e-06 -4.329304e-28)
(-9.597014e-06 7.489168e-06 5.352454e-30)
(-1.251176e-05 1.255924e-05 8.813631e-28)
(-1.260792e-05 1.112647e-05 -2.543658e-29)
(-1.432651e-05 1.626917e-05 -1.90384e-30)
(-1.487017e-05 1.501633e-05 -4.036066e-29)
(-1.553547e-05 2.005413e-05 -1.273913e-27)
(-1.637415e-05 1.90435e-05 1.914024e-30)
(-1.71689e-05 2.308573e-05 1.294836e-29)
(-1.623559e-05 2.383648e-05 -2.598503e-27)
(-4.425161e-06 2.738765e-06 -5.170863e-28)
(-2.514862e-06 1.177024e-06 -5.65236e-31)
(-8.589336e-06 6.040127e-06 -8.607044e-31)
(-7.424132e-06 4.43658e-06 -7.332455e-31)
(-1.215698e-05 9.632281e-06 8.485995e-29)
(-1.177767e-05 8.009733e-06 1.013375e-26)
(-1.499224e-05 1.360411e-05 2.085145e-27)
(-1.531567e-05 1.199533e-05 8.883068e-27)
(-1.694383e-05 1.782749e-05 1.441191e-27)
(-1.782003e-05 1.631999e-05 2.981528e-30)
(-1.800811e-05 2.20778e-05 -4.480305e-30)
(-1.9252e-05 2.083694e-05 2.492349e-26)
(-1.977883e-05 2.545674e-05 0)
(-1.838352e-05 2.634104e-05 -1.702673e-30)
(-5.509229e-06 2.873182e-06 0)
(-3.152205e-06 1.214333e-06 -1.125607e-30)
(-1.060502e-05 6.401332e-06 3.388037e-30)
(-9.201244e-06 4.632443e-06 1.464387e-30)
(-1.48868e-05 1.033222e-05 1.274364e-29)
(-1.446416e-05 8.508556e-06 6.395095e-30)
(-1.809605e-05 1.465332e-05 6.068317e-28)
(-1.860853e-05 1.288291e-05 9.347563e-30)
(-2.015495e-05 1.935069e-05 2.463216e-27)
(-2.146617e-05 1.767307e-05 1.094794e-26)
(-2.104811e-05 2.427593e-05 2.937935e-29)
(-2.29026e-05 2.280981e-05 2.177019e-29)
(-2.320206e-05 2.845854e-05 -2.101268e-29)
(-2.107225e-05 2.94336e-05 -2.726432e-30)
(-6.838789e-06 2.971976e-06 -1.188221e-27)
(-3.920302e-06 1.232322e-06 -3.578922e-30)
(-1.305409e-05 6.736023e-06 -5.244898e-28)
(-1.130653e-05 4.811007e-06 2.927493e-30)
(-1.817277e-05 1.104989e-05 3.007368e-30)
(-1.763094e-05 9.042413e-06 -1.377469e-30)
(-2.191338e-05 1.584006e-05 7.129809e-30)
(-2.252508e-05 1.387644e-05 0)
(-2.414124e-05 2.100946e-05 -2.662979e-31)
(-2.581864e-05 1.918858e-05 3.111756e-26)
(-2.50492e-05 2.710798e-05 -1.33106e-26)
(-2.763702e-05 2.530233e-05 -7.178063e-29)
(-2.827598e-05 3.296519e-05 -1.787073e-28)
(-2.498739e-05 3.431659e-05 -2.40029e-26)
(-8.381714e-06 3.069755e-06 1.344762e-27)
(-4.792464e-06 1.262599e-06 -1.479574e-27)
(-1.587645e-05 7.113728e-06 -2.909189e-30)
(-1.364987e-05 5.048935e-06 -2.070286e-30)
(-2.197553e-05 1.186378e-05 -4.381525e-30)
(-2.118393e-05 9.696594e-06 -6.637776e-27)
(-2.641459e-05 1.720757e-05 1.174311e-29)
(-2.701479e-05 1.502394e-05 -6.52357e-30)
(-2.927597e-05 2.332079e-05 1.556852e-26)
(-3.127722e-05 2.116108e-05 -5.504465e-30)
(-3.093157e-05 3.126821e-05 -2.569488e-25)
(-3.460648e-05 2.910639e-05 1.003895e-25)
(-3.673573e-05 4.009368e-05 -2.559635e-28)
(-3.153701e-05 4.232501e-05 -1.1139e-25)
(-1.005021e-05 3.238662e-06 1.577757e-27)
(-5.697906e-06 1.355309e-06 -2.9513e-30)
(-1.895241e-05 7.629242e-06 -8.571837e-30)
(-1.60659e-05 5.430344e-06 7.283576e-28)
(-2.621498e-05 1.28518e-05 -1.155598e-29)
(-2.495116e-05 1.051549e-05 6.062225e-31)
(-3.186171e-05 1.896635e-05 -1.124478e-26)
(-3.214737e-05 1.647273e-05 -2.809935e-30)
(-3.648374e-05 2.680195e-05 -2.728195e-26)
(-3.840249e-05 2.397727e-05 -3.73379e-29)
(-4.02206e-05 3.758115e-05 -1.32231e-25)
(-4.441387e-05 3.452724e-05 -4.906059e-29)
(-4.97406e-05 4.977512e-05 -9.693381e-29)
(-4.313042e-05 5.405306e-05 -2.787624e-25)
(-1.167092e-05 3.530849e-06 2.098986e-30)
(-6.546462e-06 1.551943e-06 5.124197e-30)
(-2.207948e-05 8.323077e-06 -7.449718e-28)
(-1.835461e-05 6.013017e-06 -2.490613e-26)
(-3.088038e-05 1.413554e-05 3.485862e-27)
(-2.873205e-05 1.154196e-05 1.064817e-27)
(-3.867486e-05 2.147762e-05 -1.639011e-29)
(-3.802428e-05 1.84171e-05 2.041557e-29)
(-4.629415e-05 3.166484e-05 -4.719807e-26)
(-4.737524e-05 2.776787e-05 -4.401873e-26)
(-5.379868e-05 4.625894e-05 -1.822149e-29)
(-5.734629e-05 4.130459e-05 -1.918922e-29)
(-6.829149e-05 6.123395e-05 3.342825e-30)
(-6.168212e-05 6.834025e-05 -1.306816e-29)
(-1.31316e-05 3.99822e-06 5.503952e-30)
(-7.284768e-06 1.885061e-06 -1.712455e-26)
(-2.499318e-05 9.222152e-06 -8.485137e-27)
(-2.024453e-05 6.808836e-06 -1.113871e-30)
(-3.5926e-05 1.585429e-05 1.064474e-29)
(-3.225851e-05 1.282215e-05 -6.228671e-30)
(-4.672325e-05 2.471184e-05 -8.842436e-30)
(-4.414137e-05 2.07858e-05 -5.015023e-27)
(-5.838759e-05 3.738375e-05 -6.242416e-26)
(-5.712529e-05 3.203618e-05 3.947495e-30)
(-7.143619e-05 5.584553e-05 1.715973e-30)
(-7.154283e-05 4.813215e-05 -5.291282e-26)
(-8.874614e-05 7.169874e-05 -1.073877e-28)
(-8.667281e-05 8.392746e-05 1.188914e-29)
(-1.431939e-05 4.666155e-06 -2.133117e-27)
(-7.709383e-06 2.321527e-06 -1.254309e-30)
(-2.737964e-05 1.034424e-05 -1.475407e-30)
(-2.144425e-05 7.795346e-06 1.464683e-30)
(-4.049595e-05 1.776382e-05 2.917333e-30)
(-3.490707e-05 1.427483e-05 3.559847e-30)
(-5.466551e-05 2.819952e-05 3.27714e-29)
(-4.919988e-05 2.320537e-05 1.019088e-25)
(-7.028634e-05 4.280064e-05 3.218794e-29)
(-6.521331e-05 3.582512e-05 -1.502166e-25)
(-8.849839e-05 6.564014e-05 -1.816817e-23)
(-8.408102e-05 5.365577e-05 5.1187e-29)
(-0.0001087944 7.959248e-05 1.95723e-30)
(-0.0001109419 0.00010638 -2.133208e-22)
(-1.481414e-05 5.443059e-06 -2.786081e-30)
(-7.644568e-06 2.815599e-06 3.035595e-26)
(-2.885539e-05 1.16664e-05 4.664761e-27)
(-2.165818e-05 8.899487e-06 2.912164e-30)
(-4.342042e-05 1.959933e-05 -5.444374e-29)
(-3.587081e-05 1.569277e-05 1.050811e-29)
(-5.981736e-05 3.08793e-05 -1.66646e-25)
(-5.144035e-05 2.519087e-05 -4.87509e-29)
(-7.870193e-05 4.868104e-05 5.267479e-29)
(-6.976328e-05 3.843902e-05 3.334462e-23)
(-0.0001004463 8.20086e-05 1.603761e-28)
(-9.368038e-05 5.689312e-05 2.976775e-22)
(-0.0001257057 8.438479e-05 4.530622e-22)
(-0.000127143 0.0001409604 7.469981e-22)
(-1.447311e-05 6.265904e-06 -5.86218e-30)
(-7.14137e-06 3.32777e-06 -5.862979e-30)
(-2.865284e-05 1.291499e-05 6.980051e-30)
(-2.062624e-05 9.952882e-06 5.671716e-30)
(-4.372986e-05 2.117573e-05 2.698453e-26)
(-3.453412e-05 1.689175e-05 1.381184e-29)
(-6.070297e-05 3.394379e-05 -5.021273e-29)
(-5.040322e-05 2.649006e-05 1.764861e-29)
(-8.028417e-05 5.988465e-05 -8.567582e-22)
(-7.134781e-05 3.962764e-05 1.374008e-22)
(-0.0001043469 0.000109421 -7.740843e-30)
(-9.72599e-05 5.777541e-05 -2.798495e-28)
(-0.0001357176 8.645715e-05 -1.2213e-28)
(-0.0001324668 0.0001863824 1.56834e-21)
(-1.324399e-05 6.993669e-06 5.660482e-30)
(-6.252956e-06 3.75187e-06 0)
(-2.65147e-05 1.393893e-05 1.140299e-26)
(-1.845263e-05 1.086889e-05 6.086946e-30)
(-4.078465e-05 2.284803e-05 1.53313e-29)
(-3.107453e-05 1.780392e-05 7.680879e-30)
(-5.726378e-05 4.32256e-05 9.986606e-23)
(-4.751291e-05 2.700024e-05 8.615675e-30)
(-7.610635e-05 8.270531e-05 -1.024862e-28)
(-7.145159e-05 3.965471e-05 4.213257e-22)
(-9.468066e-05 0.0001437477 -5.354952e-21)
(-0.0001014077 5.79432e-05 8.710543e-22)
(-0.0001284143 8.662187e-05 -5.89683e-28)
(-0.000125632 0.000239459 2.57389e-21)
(-1.138e-05 7.579353e-06 3.787646e-31)
(-5.154233e-06 4.078691e-06 -4.586353e-30)
(-2.279301e-05 1.475474e-05 1.138337e-30)
(-1.546017e-05 1.168526e-05 1.273117e-30)
(-3.480298e-05 2.786024e-05 7.601656e-31)
(-2.690766e-05 1.852537e-05 4.857774e-31)
(-4.928748e-05 6.181509e-05 1.644715e-29)
(-4.282114e-05 2.68011e-05 -3.308019e-32)
(-6.588979e-05 0.0001161764 3.695874e-29)
(-6.886103e-05 3.901982e-05 1.66212e-29)
(-8.289288e-05 0.0001923397 -3.158021e-28)
(-0.0001005609 5.803547e-05 2.069049e-29)
(-0.0001344955 8.894672e-05 -2.226261e-21)
(-9.339698e-05 0.0002927985 -1.328414e-20)
(-9.202092e-06 8.147939e-06 1.525681e-27)
(-3.967654e-06 4.378295e-06 2.886557e-26)
(-1.826836e-05 1.761921e-05 6.34786e-31)
(-1.265893e-05 1.241709e-05 6.305767e-30)
(-2.743091e-05 4.089395e-05 -2.872097e-31)
(-2.428503e-05 1.911162e-05 -5.822091e-30)
(-3.680048e-05 8.597156e-05 -4.020751e-33)
(-4.131931e-05 2.696258e-05 1.187792e-30)
(-5.004005e-05 0.0001561248 8.611292e-32)
(-5.891967e-05 3.806795e-05 -1.445101e-29)
(-6.173762e-05 0.0002487663 5.866977e-29)
(-9.42552e-05 5.871545e-05 -1.22962e-29)
(-0.0001243724 9.218951e-05 2.503082e-29)
(-7.338568e-05 0.0003684568 5.151632e-21)
(-6.797965e-06 8.855001e-06 -4.448265e-25)
(-2.744355e-06 4.641667e-06 -6.281302e-30)
(-1.342399e-05 2.578131e-05 -1.338232e-31)
(-1.055712e-05 1.301907e-05 1.047383e-22)
(-1.957187e-05 6.172977e-05 -3.903876e-22)
(-2.300312e-05 1.968546e-05 -1.087221e-29)
(-2.541997e-05 0.0001182542 -1.305244e-29)
(-4.085858e-05 2.738283e-05 1.047225e-21)
(-2.630518e-05 0.0001978204 -2.735676e-29)
(-6.30321e-05 3.971008e-05 -1.840409e-21)
(-2.590628e-05 0.0003020634 -4.89955e-29)
(-8.758642e-05 6.220029e-05 -1.233737e-29)
(-8.061724e-05 9.841936e-05 -3.99856e-31)
(-3.317907e-05 0.0004464339 -7.948944e-29)
(-4.23895e-06 1.134084e-05 6.009355e-30)
(-1.974599e-06 4.803129e-06 -3.226944e-31)
(-8.334277e-06 3.879169e-05 8.154484e-31)
(-9.351259e-06 1.343715e-05 1.204349e-30)
(-1.1598e-05 8.668302e-05 -6.366308e-22)
(-2.236106e-05 2.029753e-05 -5.151214e-30)
(-1.350754e-05 0.0001562327 -1.241813e-21)
(-4.037918e-05 2.835409e-05 -1.463141e-21)
(-1.198555e-05 0.0002494635 -1.602867e-29)
(-6.178133e-05 4.212228e-05 2.454007e-21)
(-3.848395e-06 0.0003697556 3.515374e-29)
(-8.266125e-05 6.870759e-05 -8.423449e-32)
(-9.171708e-05 0.0001156476 5.850722e-29)
(2.632007e-05 0.0005200346 5.646656e-28)
(-1.715185e-06 1.65468e-05 -5.1349e-30)
(-1.574133e-06 4.83628e-06 1.835851e-30)
(-3.327342e-06 5.381561e-05 -4.766143e-30)
(-8.730228e-06 1.364348e-05 -3.691383e-22)
(-3.940096e-06 0.000112587 -1.568831e-29)
(-2.162894e-05 2.09442e-05 5.376487e-30)
(-2.010113e-06 0.0001945043 -1.604093e-21)
(-3.959374e-05 3.022824e-05 -2.101047e-29)