/*--------------------------------*- C++ -*----------------------------------*\
| =========                 |                                                 |
| \\      /  F ield         | OpenFOAM: The Open Source CFD Toolbox           |
|  \\    /   O peration     | Version:  2206                                  |
|   \\  /    A nd           | Website:  www.openfoam.com                      |
|    \\/     M anipulation  |                                                 |
\*---------------------------------------------------------------------------*/
FoamFile
{
    version     2.0;
    format      ascii;
    arch        "LSB;label=32;scalar=64";
    class       surfaceVectorField;
    location    "2.4";
    object      Ufb;
}
// * * * * * * * * * * * * * * * * * * * * * * * * * * * * * * * * * * * * * //

dimensions      [0 1 -1 0 0 0 0];

internalField   nonuniform List<vector> 
26037
(
(-5.112475e-06 8.328468e-05 1.070771e-21)
(4.005972e-05 8.735549e-06 -2.248037e-27)
(-6.426797e-06 3.787949e-05 7.425532e-23)
(5.093002e-06 4.897483e-05 2.224886e-24)
(-5.620618e-06 1.340782e-05 1.450978e-27)
(-1.183771e-06 2.480694e-05 1.454273e-27)
(-5.491715e-06 3.364874e-06 2.044106e-28)
(-4.38131e-06 9.913899e-06 0)
(-5.503576e-06 -1.813651e-06 6.700126e-24)
(-4.522146e-06 1.393364e-06 2.046977e-28)
(-5.642673e-06 -5.904617e-06 1.237746e-28)
(-4.728632e-06 -3.61831e-06 -4.038089e-27)
(-5.059843e-06 -7.522093e-06 2.281838e-29)
(-5.837564e-06 -9.347088e-06 2.723533e-24)
(1.681309e-05 5.610264e-05 -1.195246e-29)
(7.5326e-05 8.687028e-06 1.923164e-27)
(1.84381e-06 3.188732e-05 -1.206733e-29)
(2.531572e-05 3.004535e-05 -1.012714e-27)
(-1.280526e-06 1.345017e-05 0)
(6.537348e-06 1.920517e-05 -3.817313e-28)
(-2.99947e-06 4.102814e-06 3.116665e-31)
(4.614415e-07 8.083579e-06 -5.362768e-28)
(-3.600403e-06 -1.608547e-06 7.277951e-31)
(-1.621236e-06 1.165297e-06 8.917665e-26)
(-4.121944e-06 -5.913241e-06 1.603865e-30)
(-2.782175e-06 -3.72792e-06 4.162197e-31)
(-3.591001e-06 -7.646455e-06 5.035279e-27)
(-4.619782e-06 -9.429076e-06 -4.747364e-29)
(4.258791e-05 2.397083e-05 9.174442e-28)
(4.125822e-05 6.314898e-06 1.579413e-22)
(1.633314e-05 1.779898e-05 -1.397288e-27)
(2.117721e-05 1.471491e-05 -4.069477e-23)
(4.804615e-06 9.867048e-06 -2.36024e-24)
(9.938405e-06 1.095736e-05 -1.321901e-27)
(7.205929e-07 3.32081e-06 -3.991805e-24)
(4.18292e-06 5.417039e-06 -8.264521e-28)
(-1.175281e-06 -1.844781e-06 -1.640651e-28)
(1.12741e-06 2.981953e-07 -1.339133e-25)
(-2.355735e-06 -6.044424e-06 3.877657e-35)
(-6.92835e-07 -4.123435e-06 0)
(-1.955368e-06 -7.911165e-06 -6.385355e-27)
(-3.247305e-06 -9.572225e-06 5.4751e-29)
(2.928632e-05 1.14762e-05 -4.067113e-28)
(2.918233e-05 3.942103e-06 1.056656e-27)
(1.632921e-05 1.072137e-05 -2.408382e-27)
(1.959751e-05 8.370841e-06 -2.314249e-23)
(8.289227e-06 6.77946e-06 3.612081e-25)
(1.218286e-05 6.684238e-06 -2.609966e-24)
(3.87294e-06 2.084191e-06 -2.836642e-28)
(7.085918e-06 3.245373e-06 3.765992e-24)
(1.315482e-06 -2.393529e-06 4.78858e-30)
(3.754265e-06 -7.853554e-07 3.079301e-28)
(-3.981394e-07 -6.364411e-06 4.713799e-31)
(1.511741e-06 -4.748348e-06 -7.060984e-33)
(-1.448939e-07 -8.362411e-06 3.154752e-29)
(-1.69155e-06 -9.843796e-06 -6.862254e-29)
(2.383364e-05 6.524914e-06 -5.714061e-25)
(2.521188e-05 2.499521e-06 1.985964e-30)
(1.667931e-05 6.7477e-06 -6.308958e-25)
(1.956299e-05 5.043374e-06 -6.008698e-28)
(1.085492e-05 4.238529e-06 -1.533202e-27)
(1.410829e-05 3.964356e-06 -9.002762e-28)
(6.684929e-06 6.440304e-07 -2.732798e-25)
(9.700088e-06 1.298223e-06 -2.933671e-25)
(3.793174e-06 -3.201962e-06 -3.61153e-25)
(6.369578e-06 -2.050161e-06 -1.254374e-24)
(1.714473e-06 -6.924217e-06 -4.894265e-25)
(3.836534e-06 -5.596578e-06 -8.507672e-30)
(1.836786e-06 -9.053159e-06 -4.056856e-27)
(4.462419e-08 -1.032835e-05 3.107609e-29)
(2.238149e-05 3.795972e-06 -5.220932e-30)
(2.379042e-05 1.475192e-06 0)
(1.766912e-05 3.911294e-06 4.130819e-25)
(2.016792e-05 2.76075e-06 -5.641635e-28)
(1.310935e-05 2.015565e-06 -5.738805e-25)
(1.60392e-05 1.728712e-06 -4.293009e-28)
(9.349866e-06 -9.531736e-07 3.063474e-25)
(1.222654e-05 -5.324617e-07 -3.303454e-28)
(6.336658e-06 -4.329201e-06 -1.295909e-29)
(8.985689e-06 -3.529249e-06 -3.663106e-25)
(3.935115e-06 -7.772016e-06 -8.261987e-27)
(6.275003e-06 -6.754223e-06 -3.107893e-30)
(3.965654e-06 -1.001475e-05 -1.231719e-28)
(1.946111e-06 -1.108424e-05 6.12953e-25)
(2.233501e-05 1.96836e-06 -5.586466e-28)
(2.374865e-05 7.162155e-07 1.223899e-27)
(1.900363e-05 1.658463e-06 -9.948871e-28)
(2.12747e-05 9.943628e-07 -4.129395e-24)
(1.536607e-05 -3.450787e-08 -3.439754e-24)
(1.807348e-05 -2.375456e-07 -2.36335e-24)
(1.193472e-05 -2.673774e-06 -2.903021e-28)
(1.476137e-05 -2.380059e-06 3.055396e-29)
(8.930301e-06 -5.757989e-06 1.436455e-25)
(1.161558e-05 -5.17497e-06 -1.064943e-27)
(6.29148e-06 -8.975119e-06 5.565287e-30)
(8.794008e-06 -8.239644e-06 1.543109e-29)
(6.228055e-06 -1.133357e-05 1.50035e-29)
(3.966422e-06 -1.215129e-05 -3.903122e-30)
(2.316113e-05 6.390704e-07 6.474158e-28)
(2.462995e-05 1.353269e-07 8.428081e-24)
(2.06605e-05 -2.11443e-07 -1.095255e-27)
(2.281923e-05 -4.443425e-07 6.478367e-28)
(1.765844e-05 -1.977175e-06 -5.236198e-28)
(2.023078e-05 -2.015131e-06 4.781655e-29)
(1.4509e-05 -4.511431e-06 -7.507347e-28)
(1.729119e-05 -4.251478e-06 5.56352e-30)
(1.152974e-05 -7.440646e-06 -7.352574e-28)
(1.426721e-05 -6.992514e-06 -1.816701e-24)
(8.753406e-06 -1.053272e-05 5.342799e-26)
(1.137238e-05 -9.977982e-06 2.415133e-29)
(8.595579e-06 -1.302593e-05 1.510724e-29)
(6.132152e-06 -1.35962e-05 -1.468891e-28)
(2.464345e-05 -3.933537e-07 1.224174e-27)
(2.623068e-05 -3.325904e-07 -6.989651e-24)
(2.265065e-05 -1.830487e-06 1.790778e-27)
(2.48047e-05 -1.673121e-06 5.777746e-24)
(2.006532e-05 -3.839446e-06 2.25163e-25)
(2.260451e-05 -3.683142e-06 2.21664e-24)
(1.713826e-05 -6.432836e-06 -1.715126e-27)
(1.993033e-05 -6.133411e-06 -1.110712e-27)
(1.418312e-05 -9.339193e-06 1.08956e-25)
(1.699447e-05 -8.957604e-06 -2.319557e-24)
(1.127313e-05 -1.239244e-05 1.428043e-29)
(1.402949e-05 -1.196777e-05 1.427603e-29)
(1.105726e-05 -1.502212e-05 0)
(8.424338e-06 -1.542667e-05 2.112878e-28)
(2.669396e-05 -1.252687e-06 -4.923148e-29)
(2.845514e-05 -7.35297e-07 -1.372659e-27)
(2.500188e-05 -3.279511e-06 1.943494e-27)
(2.723675e-05 -2.777266e-06 1.324174e-27)
(2.268118e-05 -5.647966e-06 -4.783269e-28)
(2.527501e-05 -5.279284e-06 1.987428e-27)
(1.989698e-05 -8.43567e-06 -1.108308e-27)
(2.276232e-05 -8.047284e-06 -3.580628e-24)
(1.693717e-05 -1.143548e-05 -3.940972e-31)
(1.986014e-05 -1.106748e-05 2.854618e-24)
(1.389208e-05 -1.453687e-05 0)
(1.680622e-05 -1.419775e-05 0)
(1.36352e-05 -1.733222e-05 0)
(1.080426e-05 -1.760372e-05 3.218577e-28)
(2.928001e-05 -2.008423e-06 0)
(3.125417e-05 -1.104727e-06 0)
(2.775429e-05 -4.6408e-06 1.367603e-27)
(3.014698e-05 -3.818171e-06 -1.604467e-27)
(2.558066e-05 -7.443849e-06 1.4785e-28)
(2.830528e-05 -6.85136e-06 4.924952e-24)
(2.285833e-05 -1.052996e-05 -1.240686e-27)
(2.586147e-05 -1.002006e-05 1.348977e-28)
(1.985026e-05 -1.372553e-05 5.307814e-31)
(2.293326e-05 -1.333125e-05 -3.431242e-24)
(1.665007e-05 -1.696052e-05 0)
(1.975601e-05 -1.666985e-05 0)
(1.636641e-05 -1.995739e-05 1.006961e-27)
(1.331353e-05 -2.012419e-05 -3.181373e-28)
(3.240063e-05 -2.725681e-06 -1.6038e-27)
(3.462732e-05 -1.460688e-06 0)
(3.094939e-05 -5.971171e-06 -8.344929e-29)
(3.355964e-05 -4.842763e-06 -5.937015e-24)
(2.882926e-05 -9.266803e-06 2.910575e-27)
(3.175299e-05 -8.44615e-06 1.508555e-27)
(2.609397e-05 -1.273806e-05 -4.50361e-26)
(2.930009e-05 -1.208396e-05 4.570305e-24)
(2.298656e-05 -1.621973e-05 -1.290032e-27)
(2.628489e-05 -1.576898e-05 -2.726322e-27)
(1.959748e-05 -1.96692e-05 1.006615e-27)
(2.293892e-05 -1.939775e-05 1.269197e-27)
(1.929814e-05 -2.290972e-05 2.912024e-24)
(1.59889e-05 -2.299597e-05 -1.386892e-25)
(3.607484e-05 -3.43447e-06 -1.793496e-27)
(3.859163e-05 -1.819336e-06 -2.045824e-27)
(3.463078e-05 -7.317695e-06 2.392688e-26)
(3.751433e-05 -5.888316e-06 -1.793789e-27)
(3.248961e-05 -1.115995e-05 1.542808e-27)
(3.567651e-05 -1.010502e-05 -3.247622e-29)
(2.967439e-05 -1.508922e-05 1.17141e-28)
(3.314464e-05 -1.427332e-05 1.551466e-27)
(2.641305e-05 -1.894058e-05 -1.648074e-28)
(2.998812e-05 -1.840573e-05 -4.82295e-24)
(2.279055e-05 -2.26801e-05 1.27029e-27)
(2.641776e-05 -2.240553e-05 3.997446e-24)
(2.24836e-05 -2.621077e-05 -3.465244e-24)
(1.887515e-05 -2.623566e-05 1.076241e-30)
(4.033754e-05 -4.162178e-06 -2.046218e-27)
(4.318378e-05 -2.1925e-06 -7.17608e-24)
(3.884924e-05 -8.719697e-06 -1.770169e-29)
(4.20596e-05 -6.985201e-06 0)
(3.662008e-05 -1.316378e-05 2.206659e-26)
(4.01365e-05 -1.187095e-05 -5.933695e-29)
(3.366972e-05 -1.760922e-05 -3.298243e-27)
(3.745578e-05 -1.66459e-05 2.366532e-27)
(3.019967e-05 -2.191986e-05 -1.798512e-27)
(3.412409e-05 -2.12447e-05 -6.335516e-24)
(2.628832e-05 -2.601981e-05 2.008744e-28)
(3.025465e-05 -2.571899e-05 1.446463e-27)
(2.598005e-05 -2.989004e-05 1.77661e-28)
(2.202267e-05 -2.986924e-05 -3.248218e-28)
(4.523795e-05 -4.929333e-06 -2.292626e-27)
(4.845532e-05 -2.589018e-06 -2.29157e-27)
(4.36675e-05 -1.021238e-05 -4.158873e-29)
(4.725615e-05 -8.155313e-06 -2.512309e-27)
(4.128998e-05 -1.53311e-05 5.356309e-26)
(4.521739e-05 -1.376347e-05 -4.159933e-29)
(3.82006e-05 -2.033376e-05 -8.501283e-25)
(4.23839e-05 -1.91919e-05 5.79765e-24)
(3.443995e-05 -2.517981e-05 -1.255545e-27)
(3.881338e-05 -2.438629e-05 -1.176693e-27)
(3.015859e-05 -2.971988e-05 1.42345e-27)
(3.453261e-05 -2.938319e-05 1.040096e-28)
(2.985277e-05 -3.398785e-05 4.720024e-24)
(2.548782e-05 -3.393141e-05 2.608467e-27)
(5.083433e-05 -5.750773e-06 -2.511096e-27)
(5.446852e-05 -3.017245e-06 0)
(4.914748e-05 -1.181343e-05 -2.512816e-27)
(5.316435e-05 -9.422086e-06 -8.384661e-24)
(4.661181e-05 -1.764636e-05 2.32993e-27)
(5.09562e-05 -1.58177e-05 -2.786769e-29)
(4.329937e-05 -2.329414e-05 -2.06383e-25)
(4.789228e-05 -2.194434e-05 2.29369e-27)
(3.914167e-05 -2.877797e-05 1.900344e-28)
(4.400328e-05 -2.786197e-05 8.583145e-29)
(3.446362e-05 -3.382992e-05 -2.704835e-25)
(3.930829e-05 -3.344595e-05 1.039644e-28)
(3.416472e-05 -3.855313e-05 1.744382e-27)
(2.933003e-05 -3.846819e-05 1.881503e-27)
(5.719792e-05 -6.644944e-06 -5.649374e-27)
(6.130154e-05 -3.485283e-06 -3.255105e-27)
(5.535807e-05 -1.356525e-05 -5.681105e-27)
(5.986726e-05 -1.080951e-05 -9.308142e-24)
(5.260037e-05 -2.020566e-05 8.850406e-26)
(5.745175e-05 -1.807943e-05 -9.162411e-29)
(4.898768e-05 -2.659092e-05 -3.930283e-29)
(5.409982e-05 -2.501871e-05 -8.283063e-29)
(4.44225e-05 -3.275988e-05 0)
(4.98309e-05 -3.169258e-05 0)
(3.927777e-05 -3.839798e-05 0)
(4.466331e-05 -3.795226e-05 -2.522356e-27)
(3.898524e-05 -4.363973e-05 -3.110561e-28)
(3.361248e-05 -4.353187e-05 -1.543792e-28)
(6.441353e-05 -7.625726e-06 -1.007311e-26)
(6.904414e-05 -4.000026e-06 -1.063553e-23)
(6.23887e-05 -1.548977e-05 1.284756e-25)
(6.745437e-05 -1.233689e-05 -6.784022e-27)
(5.936015e-05 -2.302288e-05 1.151888e-25)
(6.479266e-05 -2.057334e-05 -1.724937e-28)
(5.538751e-05 -3.023293e-05 -4.485027e-29)
(6.109862e-05 -2.841943e-05 -1.444151e-28)
(5.035838e-05 -3.716667e-05 -2.551679e-27)
(5.638488e-05 -3.592944e-05 0)
(4.467765e-05 -4.348039e-05 4.2261e-25)
(5.06893e-05 -4.294839e-05 -8.364633e-24)
(4.438899e-05 -4.930984e-05 -4.865907e-28)
(3.840269e-05 -4.918231e-05 5.274606e-25)
(7.257686e-05 -8.707086e-06 -1.865703e-26)
(7.779847e-05 -4.568488e-06 -7.800933e-27)
(7.033471e-05 -1.761408e-05 1.482275e-25)
(7.602693e-05 -1.402484e-05 -1.154907e-23)
(6.6988e-05 -2.613839e-05 2.857591e-25)
(7.307993e-05 -2.333454e-05 -3.989715e-27)
(6.258554e-05 -3.42691e-05 -1.018861e-28)
(6.898787e-05 -3.22046e-05 -1.002558e-28)
(5.704384e-05 -4.203039e-05 -2.735266e-27)
(6.374371e-05 -4.068582e-05 1.096732e-27)
(5.075562e-05 -4.914199e-05 -2.877181e-27)
(5.750781e-05 -4.842859e-05 -1.067297e-27)
(5.045449e-05 -5.562264e-05 2.194692e-28)
(4.377432e-05 -5.548812e-05 6.138096e-25)
(8.179587e-05 -9.903051e-06 -1.22059e-26)
(8.767912e-05 -5.197429e-06 -1.316997e-23)
(7.930498e-05 -1.996553e-05 -1.195471e-26)
(8.569872e-05 -1.589241e-05 -1.282524e-23)
(7.560208e-05 -2.959739e-05 -3.883833e-27)
(8.243247e-05 -2.638818e-05 -1.227882e-23)
(7.069388e-05 -3.879222e-05 1.08679e-27)
(7.79285e-05 -3.637984e-05 -4.011502e-27)
(6.469551e-05 -4.743241e-05 -3.893258e-24)
(7.221239e-05 -4.5897e-05 1.253638e-27)
(5.765098e-05 -5.543291e-05 -1.419377e-24)
(6.53316e-05 -5.460625e-05 -1.7455e-27)
(5.729935e-05 -6.26656e-05 3.217414e-27)
(4.98179e-05 -6.252198e-05 3.950281e-28)
(9.218953e-05 -1.122694e-05 1.556054e-26)
(9.881293e-05 -5.894546e-06 -4.663281e-27)
(8.941333e-05 -2.25659e-05 -2.144406e-25)
(9.659101e-05 -1.796224e-05 -1.431961e-23)
(8.530936e-05 -3.340802e-05 -1.271285e-26)
(9.29537e-05 -2.977304e-05 -1.387094e-23)
(7.992013e-05 -4.370823e-05 -4.797623e-25)
(8.794441e-05 -4.100091e-05 -1.327943e-23)
(7.334343e-05 -5.337027e-05 -3.173164e-27)
(8.161609e-05 -5.159689e-05 1.615549e-28)
(6.533459e-05 -6.243725e-05 -4.861581e-28)
(7.397196e-05 -6.151344e-05 -1.076481e-23)
(6.500726e-05 -7.052487e-05 1.038514e-23)
(5.662108e-05 -7.037783e-05 8.187075e-25)
(0.0001038915 -1.269572e-05 -5.090842e-27)
(0.0001113431 -6.667666e-06 5.914256e-27)
(0.0001007902 -2.545347e-05 -2.306166e-25)
(0.0001088465 -2.025832e-05 -5.091586e-27)
(9.622422e-05 -3.765495e-05 -1.420678e-26)
(0.0001047952 -3.353285e-05 -4.876518e-27)
(9.024344e-05 -4.924058e-05 -9.345928e-27)
(9.922528e-05 -4.615558e-05 -1.485824e-23)
(8.294104e-05 -6.00809e-05 -3.769868e-27)
(9.21919e-05 -5.804711e-05 5.089393e-27)
(7.400986e-05 -7.024776e-05 -3.782281e-27)
(8.367456e-05 -6.916932e-05 -3.849755e-27)
(7.371281e-05 -7.926079e-05 -1.269695e-23)
(6.430009e-05 -7.915174e-05 -2.391147e-27)
(0.0001170506 -1.432377e-05 5.915325e-27)
(0.0001254258 -7.523693e-06 1.812399e-23)
(0.0001135851 -2.865446e-05 0)
(0.0001226188 -2.280083e-05 0)
(0.0001085057 -4.236529e-05 1.580335e-28)
(0.0001181085 -3.769776e-05 0)
(0.0001018549 -5.537969e-05 -6.503334e-25)
(0.0001119181 -5.187438e-05 1.680076e-23)
(9.370917e-05 -6.753743e-05 5.193954e-27)
(0.0001040904 -6.525278e-05 1.668797e-23)
(8.380591e-05 -7.887655e-05 -3.966453e-27)
(9.456991e-05 -7.780491e-05 -4.988439e-27)
(8.362235e-05 -8.885058e-05 -3.94074e-27)
(7.298678e-05 -8.893983e-05 -7.88725e-27)
(0.0001318287 -1.612496e-05 1.332377e-26)
(0.0001412316 -8.469509e-06 2.005804e-23)
(0.0001279577 -3.219513e-05 0)
(0.0001380745 -2.560913e-05 4.482261e-29)
(0.0001223164 -4.757963e-05 5.744376e-27)
(0.00013306 -4.229681e-05 7.114043e-27)
(0.0001149459 -6.219936e-05 6.869899e-25)
(0.0001262037 -5.818558e-05 5.94917e-27)
(0.0001058488 -7.592564e-05 6.018728e-27)
(0.0001175977 -7.318333e-05 1.650482e-23)
(9.512692e-05 -8.852879e-05 -5.01972e-27)
(0.0001072446 -8.725075e-05 -1.227931e-23)
(9.512516e-05 -9.969743e-05 0)
(8.290072e-05 -9.985534e-05 3.832331e-27)
(0.0001484 -1.811244e-05 7.544015e-27)
(0.0001589433 -9.511753e-06 7.494737e-27)
(0.0001440774 -3.609946e-05 -2.970287e-25)
(0.0001553912 -2.870325e-05 -8.179799e-27)
(0.0001378174 -5.33233e-05 7.319112e-27)
(0.000149818 -4.736466e-05 2.12197e-23)
(0.0001296663 -6.967802e-05 -7.998754e-25)
(0.0001422149 -6.514325e-05 2.03852e-28)
(0.0001196839 -8.497323e-05 -5.389832e-27)
(0.0001326739 -8.19152e-05 -2.011443e-23)
(0.0001079845 -9.906148e-05 -5.807348e-27)
(0.000121235 -9.750799e-05 -4.288361e-27)
(0.0001077848 -0.0001118234 7.918264e-28)
(9.396251e-05 -0.0001119727 3.575852e-27)
(0.000166953 -2.029955e-05 -8.219342e-27)
(0.0001787584 -1.0656e-05 -9.479008e-27)
(0.0001621299 -4.039699e-05 -3.051947e-28)
(0.0001747646 -3.210166e-05 -2.398113e-23)
(0.0001551917 -5.965449e-05 7.927792e-27)
(0.0001685813 -5.293464e-05 1.682937e-26)
(0.0001461745 -7.796327e-05 -6.442856e-27)
(0.0001601783 -7.280445e-05 0)
(0.0001351499 -9.5132e-05 -2.130959e-24)
(0.0001496484 -9.158559e-05 -7.086412e-27)
(0.0001222153 -0.000110974 -3.105812e-24)
(0.0001370214 -0.0001090748 1.373059e-27)
(0.0001221131 -0.0001252332 1.676939e-27)
(0.0001065537 -0.0001255732 -1.289845e-28)
(0.0001876908 -2.269488e-05 -1.872385e-26)
(0.0002008844 -1.190638e-05 -2.650112e-23)
(0.000182318 -4.510937e-05 -3.497135e-28)
(0.0001964052 -3.581275e-05 -1.96278e-26)
(0.0001746477 -6.659826e-05 8.909006e-27)
(0.0001895553 -5.902849e-05 2.589975e-23)
(0.000164708 -8.705785e-05 -6.420489e-28)
(0.0001802986 -8.119149e-05 0)
(0.000152559 -0.000106292 2.331313e-24)
(0.0001687203 -0.0001021891 -6.421406e-28)
(0.0001382669 -0.0001240868 -3.36286e-24)
(0.0001548211 -0.0001218565 -8.185213e-27)
(0.0001383857 -0.0001402541 6.348307e-28)
(0.0001210376 -0.0001405462 6.485999e-27)
(0.0002108323 -2.529632e-05 -2.102712e-26)
(0.0002255446 -1.325447e-05 -2.261241e-26)
(0.0002048613 -5.025242e-05 -3.710397e-28)
(0.0002205466 -3.984298e-05 -2.967467e-23)
(0.0001963975 -7.41786e-05 1.001892e-26)
(0.0002129581 -6.566648e-05 1.001108e-26)
(0.0001854848 -9.699504e-05 0)
(0.000202794 -9.032736e-05 1.006906e-26)
(0.0001721862 -0.0001185269 -8.17012e-27)
(0.0001901312 -0.0001137274 -7.973006e-28)
(0.0001564727 -0.000138663 -8.57473e-27)
(0.0001750788 -0.0001356663 -2.196613e-23)
(0.000157649 -0.0001560814 7.239591e-24)
(0.0001385077 -0.0001571415 1.767932e-23)
(0.000236607 -2.808325e-05 2.423146e-25)
(0.0002529358 -1.474173e-05 -2.971054e-23)
(0.0002299886 -5.584555e-05 -1.172607e-26)
(0.0002474452 -4.411298e-05 -1.175526e-26)
(0.0002206614 -8.241668e-05 1.006082e-26)
(0.0002390142 -7.284164e-05 -1.285686e-26)
(0.0002087036 -0.0001077892 2.251779e-24)
(0.0002278836 -0.0001002534 3.162266e-23)
(0.0001941497 -0.0001317322 -1.832105e-26)
(0.0002140078 -0.0001263137 -1.208598e-26)
(0.0001769861 -0.0001539074 -3.743884e-24)
(0.0001974025 -0.0001507946 -3.252688e-23)
(0.0001778575 -0.0001733426 -3.492522e-23)
(0.0001572152 -0.0001737435 -1.478918e-23)
(0.0002653131 -3.101613e-05 -1.347081e-26)
(0.000283497 -1.627279e-05 -1.334816e-26)
(0.000258034 -6.182732e-05 -1.288891e-26)
(0.0002774389 -4.874727e-05 0)
(0.00024772 -9.133095e-05 1.015117e-24)
(0.00026805 -8.054444e-05 -3.626655e-23)
(0.0002346532 -0.0001195467 4.054134e-28)
(0.0002558896 -0.0001109849 1.167367e-26)
(0.0002187491 -0.0001463222 -3.212494e-26)
(0.0002408071 -0.0001400131 -3.536241e-23)
(0.0001998824 -0.0001714304 -3.026152e-26)
(0.0002227636 -0.0001675254 -3.670856e-23)
(0.0002014486 -0.000193357 1.266452e-27)
(0.0001778481 -0.0001945368 -2.501337e-26)
(0.0002971519 -3.420815e-05 0)
(0.0003172775 -1.792496e-05 -1.686376e-26)
(0.0002890438 -6.818242e-05 -2.836438e-26)
(0.0003103768 -5.390965e-05 1.618452e-26)
(0.0002778686 -0.0001009092 -2.825806e-26)
(0.0003003395 -8.853221e-05 -4.127468e-23)
(0.0002636777 -0.0001322243 -2.539894e-26)
(0.0002871058 -0.0001223761 0)
(0.000246492 -0.0001621032 -3.719236e-26)
(0.0002708354 -0.0001547036 -3.901781e-23)
(0.0002261591 -0.0001904758 -1.16844e-27)
(0.0002515058 -0.0001854737 -1.176675e-26)
(0.0002288992 -0.0002146654 3.400463e-23)
(0.0002022471 -0.0002172567 1.079459e-26)
(0.0003322412 -3.783716e-05 7.922468e-25)
(0.0003547841 -1.972328e-05 -3.973623e-23)
(0.000323513 -7.484035e-05 3.188212e-26)
(0.0003471194 -5.919486e-05 3.748155e-23)
(0.0003115878 -0.0001108311 1.558854e-26)
(0.000336269 -9.730414e-05 7.453475e-23)
(0.0002961584 -0.0001457239 -1.431303e-26)
(0.000322083 -0.0001340432 3.426615e-26)
(0.0002776465 -0.0001789208 -1.430965e-26)
(0.0003043643 -0.0001702428 -2.916605e-26)
(0.0002559303 -0.0002106547 9.086985e-27)
(0.0002837657 -0.000204619 1.427156e-27)
(0.0002595195 -0.0002374074 7.425999e-27)
(0.0002306024 -0.0002405789 8.354325e-24)
(0.0003713387 -4.143285e-05 -4.719425e-28)
(0.0003959969 -2.155942e-05 -1.872863e-26)
(0.0003615974 -8.192355e-05 7.102769e-26)
(0.0003875708 -6.442719e-05 1.84493e-26)
(0.0003490313 -0.0001211212 8.770426e-26)
(0.0003760879 -0.0001062217 3.78142e-23)
(0.00033265 -0.0001598115 -3.24628e-24)
(0.0003613924 -0.0001464277 9.439615e-23)
(0.0003126329 -0.0001967695 -1.343189e-26)
(0.0003419586 -0.0001864423 -5.638566e-23)
(0.0002894995 -0.0002323991 -3.027127e-24)
(0.0003201622 -0.0002249399 4.554704e-27)
(0.0002944174 -0.0002620283 5.676547e-27)
(0.0002623435 -0.0002664315 7.686297e-24)
(0.0004141118 -4.519376e-05 -6.007091e-25)
(0.0004411633 -2.345999e-05 -2.90572e-30)
(0.0004037268 -8.904275e-05 2.06869e-26)
(0.0004317042 -6.995646e-05 -9.132479e-30)
(0.0003903781 -0.0001315831 -2.636176e-24)
(0.0004194081 -0.0001150911 4.210216e-26)
(0.0003728471 -0.0001740709 1.53749e-24)
(0.0004037824 -0.0001596825 4.922584e-26)
(0.0003520234 -0.0002154244 -1.748309e-26)
(0.0003841975 -0.0002024362 -3.378975e-26)
(0.0003276295 -0.0002554532 -5.235337e-24)
(0.0003612687 -0.000245878 1.879925e-26)
(0.0003343408 -0.0002880107 7.326495e-27)
(0.0002989607 -0.0002942997 -5.631257e-24)
(0.0004608359 -4.901563e-05 6.566631e-25)
(0.0004904361 -2.530506e-05 -3.871395e-29)
(0.0004496635 -9.649423e-05 2.132009e-26)
(0.0004799113 -7.537575e-05 -1.193817e-28)
(0.0004353577 -0.0001429362 1.036738e-24)
(0.0004672786 -0.0001239805 4.85666e-23)
(0.0004179524 -0.0001884668 9.213188e-24)
(0.0004514138 -0.0001722928 5.02433e-23)
(0.0003968056 -0.0002339049 3.795298e-24)
(0.0004317899 -0.0002194095 2.367587e-26)
(0.0003711445 -0.0002793625 1.566128e-26)
(0.0004082767 -0.0002662705 9.269993e-23)
(0.0003798744 -0.0003147623 0)
(0.0003411573 -0.0003234946 -1.15096e-27)
(0.0005115296 -5.255369e-05 0)
(0.000543609 -2.694568e-05 -8.695715e-29)
(0.0004996461 -0.000103296 2.480682e-26)
(0.000531873 -8.019636e-05 2.605375e-28)
(0.0004854149 -0.0001529364 5.113401e-26)
(0.0005188522 -0.000131876 2.570124e-26)
(0.000467707 -0.000202515 9.05702e-25)
(0.000503384 -0.0001831202 2.624877e-26)
(0.0004470883 -0.0002520628 8.840866e-25)
(0.0004845789 -0.0002350967 4.852799e-23)
(0.000421041 -0.0003033556 3.4625e-26)
(0.0004623085 -0.0002867723 3.110966e-26)
(0.0004318081 -0.0003414682 -9.438437e-27)
(0.0003893953 -0.0003535979 -1.830934e-26)
(0.0005658323 -5.553003e-05 1.441419e-24)
(0.000600162 -2.818007e-05 -3.156056e-26)
(0.0005531875 -0.0001091422 -1.232377e-24)
(0.0005871524 -8.39279e-05 5.391415e-28)
(0.0005390646 -0.0001618989 8.883824e-28)
(0.0005739679 -0.0001383544 -2.964185e-26)
(0.0005222628 -0.0002147863 5.150678e-26)
(0.0005590819 -0.0001928508 0)
(0.0005025208 -0.0002684405 4.961571e-26)
(0.0005411993 -0.0002486355 7.724017e-23)
(0.000476376 -0.0003254628 -9.05782e-24)
(0.0005197815 -0.0003073487 -2.076501e-27)
(0.0004912578 -0.0003661483 -5.592895e-26)
(0.0004443051 -0.0003838431 -4.632807e-24)
(0.0006229339 -5.74109e-05 -1.135124e-24)
(0.0006589211 -2.872095e-05 -9.203442e-24)
(0.0006097102 -0.0001132443 -3.020879e-26)
(0.0006448351 -8.582167e-05 -3.346739e-26)
(0.0005962314 -0.0001689158 -3.053907e-26)
(0.0006321079 -0.0001423962 -2.724209e-23)
(0.000581061 -0.0002257949 3.227929e-26)
(0.0006189901 -0.0001999625 -2.645589e-27)
(0.000562357 -0.0002851196 7.46037e-24)
(0.0006040713 -0.0002598214 2.531376e-26)
(0.0005397233 -0.000346227 -1.017903e-22)
(0.0005846259 -0.0003232191 5.597871e-23)
(0.0005593434 -0.000388688 -6.850213e-26)
(0.0005076847 -0.000412986 -1.65172e-23)
(0.0006814778 -5.75447e-05 -3.261281e-25)
(0.0007179564 -2.8444e-05 -3.449141e-26)
(0.0006682808 -0.0001147432 -6.737416e-26)
(0.0007036013 -8.503162e-05 6.511875e-24)
(0.0006563436 -0.0001726271 -3.629725e-26)
(0.0006921072 -0.0001429114 3.070372e-27)
(0.0006439275 -0.0002325081 -7.549711e-24)
(0.0006816237 -0.0002028521 -1.298565e-27)
(0.000628339 -0.0002951159 -9.356982e-24)
(0.0006697718 -0.0002658795 -4.664273e-26)
(0.000608113 -0.0003608093 -2.80246e-23)
(0.0006528499 -0.0003329247 1.379216e-26)
(0.0006301036 -0.0004073853 -2.167327e-26)
(0.0005775146 -0.0004356518 -8.024791e-23)
(0.000739679 -5.560894e-05 3.607391e-26)
(0.0007754086 -2.701609e-05 4.050908e-26)
(0.0007276031 -0.0001125822 -2.51784e-24)
(0.0007615805 -8.180101e-05 -1.070791e-22)
(0.0007180734 -0.0001719014 3.817726e-24)
(0.0007525216 -0.0001385449 -2.88416e-23)
(0.0007089885 -0.0002340253 -3.826937e-26)
(0.0007453948 -0.0001997633 8.088835e-26)
(0.0006973672 -0.0003002787 -2.11449e-23)
(0.0007378757 -0.0002649298 6.007464e-24)
(0.0006794546 -0.0003726849 -4.695882e-27)
(0.0007266359 -0.0003355572 3.064182e-26)
(0.0007075794 -0.0004149492 2.82499e-26)
(0.0006553585 -0.0004509785 5.231181e-27)
(0.000794981 -5.200084e-05 1.18048e-25)
(0.0008280778 -2.429997e-05 -9.142191e-23)
(0.0007849483 -0.0001063776 -1.776653e-23)
(0.0008161173 -7.543764e-05 7.716995e-26)
(0.0007792586 -0.0001647056 1.166184e-25)
(0.0008102438 -0.0001295742 3.67942e-26)
(0.000773985 -0.0002277508 3.61128e-26)
(0.0008076272 -0.0001887102 -1.238491e-22)
(0.0007669715 -0.0002955196 -2.662074e-23)
(0.0008043199 -0.0002549126 4.31055e-26)
(0.0007538861 -0.0003704786 6.278254e-26)
(0.000798707 -0.000328682 -8.816652e-23)
(0.0007825651 -0.0004150486 -2.177848e-22)
(0.0007268917 -0.0004528762 -1.5199e-22)
(0.0008450778 -4.591496e-05 -2.836953e-24)
(0.0008727605 -2.055722e-05 -2.100052e-27)
(0.0008372724 -9.628631e-05 -2.413684e-28)
(0.0008642082 -6.529423e-05 1.512727e-28)
(0.0008356036 -0.0001506418 1.097387e-27)
(0.0008615861 -0.0001153305 7.330095e-28)
(0.0008359887 -0.0002123638 8.867891e-26)
(0.0008642765 -0.0001708619 2.776616e-22)
(0.0008331417 -0.0002818838 1.304224e-25)
(0.0008670913 -0.0002359803 -2.910907e-22)
(0.0008206295 -0.0003601863 9.87281e-26)
(0.0008641888 -0.0003178863 -4.92326e-26)
(0.0008377602 -0.0004227045 6.723891e-26)
(0.0007835623 -0.0004471086 5.828965e-22)
(0.0008861506 -3.775539e-05 -4.444252e-26)
(0.0009065951 -1.587471e-05 1.688812e-22)
(0.0008825156 -8.15357e-05 8.427292e-24)
(0.0009026142 -5.233486e-05 3.882491e-28)
(0.0008839955 -0.0001309571 -9.494784e-26)
(0.0009040785 -9.533067e-05 1.859131e-27)
(0.0008896463 -0.0001885722 -1.643079e-22)
(0.0009118728 -0.0001475058 -9.382577e-26)
(0.0008897421 -0.0002585357 -1.299031e-26)
(0.0009194102 -0.0002153714 8.28815e-26)
(0.0008684077 -0.0003408575 -8.07765e-26)
(0.0009075363 -0.0003127714 5.850256e-22)
(0.0008561415 -0.0004494791 1.035574e-25)
(0.0008130968 -0.0004324229 1.494918e-21)
(0.000915825 -2.787783e-05 -4.622353e-26)
(0.0009272953 -1.054639e-05 -4.622983e-26)
(0.0009168694 -6.307966e-05 1.133584e-27)
(0.0009288634 -3.687714e-05 3.839505e-28)
(0.0009237737 -0.0001051838 4.485989e-23)
(0.0009346396 -7.125677e-05 1.977842e-27)
(0.000930403 -0.0001603544 1.915777e-27)
(0.0009489505 -0.0001221262 1.872524e-27)
(0.0009261428 -0.0002302978 -9.586654e-26)
(0.0009481103 -0.0002048684 5.076258e-26)
(0.0008904902 -0.0003190954 -1.789374e-27)
(0.0009211845 -0.0003264453 -6.534369e-26)
(0.0008475772 -0.0004937653 4.422455e-22)
(0.0008123394 -0.000427938 9.479818e-26)
(0.0009321704 -1.686045e-05 3.8319e-28)
(0.0009337313 -4.865468e-06 0)
(0.0009382032 -4.119725e-05 2.662191e-23)
(0.0009406306 -1.944004e-05 3.862947e-28)
(0.0009492696 -7.434539e-05 8.447139e-28)
(0.0009506138 -4.598638e-05 4.920098e-26)
(0.0009541792 -0.0001289412 4.953421e-26)
(0.0009643731 -0.0001032768 2.232898e-27)
(0.0009345891 -0.0002033156 8.157034e-26)
(0.0009478221 -0.0002092808 -5.302021e-23)
(0.0008899822 -0.0002996325 9.989113e-21)
(0.0008962527 -0.0003638371 3.059573e-26)
(0.0008218363 -0.0005643968 1.272127e-25)
(0.0007878882 -0.000420274 -4.57196e-21)
(0.0009337163 -5.288624e-06 2.226224e-32)
(0.0009253768 1.429918e-06 -4.603681e-26)
(0.0009433779 -1.699519e-05 4.89668e-26)
(0.000936747 -1.718151e-06 -4.746154e-26)
(0.00095414 -4.284397e-05 4.421065e-22)
(0.0009468363 -2.667892e-05 -2.522551e-22)
(0.0009515178 -9.875628e-05 1.003795e-25)
(0.0009479721 -9.903773e-05 -4.521524e-26)
(0.0009198219 -0.0001799175 9.762261e-26)
(0.00091853 -0.0002299466 2.354562e-22)
(0.0008563253 -0.0002876051 -2.245678e-29)
(0.0008515509 -0.0004154051 2.454915e-30)
(0.0007496536 -0.0006580701 -1.972273e-26)
(0.0007677727 -0.0004393219 4.576148e-26)
(0.0009195452 8.144172e-06 6.635003e-24)
(0.0009004096 8.470392e-06 2.196374e-22)
(0.0009305981 7.131535e-06 5.811579e-28)
(0.0009154079 1.293714e-05 2.594856e-22)
(0.0009331007 -1.758135e-05 1.52501e-27)
(0.000918263 -2.135896e-05 4.758739e-26)
(0.0009216722 -7.400148e-05 -9.131985e-26)
(0.0008991612 -0.0001144377 -2.616264e-22)
(0.0008785293 -0.0001638653 -4.321957e-26)
(0.0008670708 -0.0002697712 -5.207487e-22)
(0.0008065974 -0.0002810213 -1.90199e-26)
(0.0007789797 -0.0004838844 -2.588477e-26)
(0.0006721521 -0.0007597672 8.600583e-26)
(0.0006942459 -0.0004412863 -8.627398e-21)
(0.0008861966 2.304222e-05 -8.947276e-26)
(0.0008569116 1.463898e-05 -4.423321e-26)
(0.0008951452 2.761933e-05 -4.527945e-26)
(0.0008700063 2.022108e-05 -4.534044e-26)
(0.0008892257 8.337432e-07 -4.443025e-26)
(0.0008624068 -3.013531e-05 -4.157879e-26)
(0.000864387 -5.859832e-05 -1.392705e-25)
(0.0008326726 -0.0001453319 -3.846529e-27)
(0.0008214873 -0.0001587705 -9.607436e-21)
(0.0007741034 -0.0003274494 -9.331813e-26)
(0.0007510838 -0.0002950649 8.038763e-26)
(0.0006836349 -0.0005719565 -2.58409e-26)
(0.0006191306 -0.0008859073 2.097532e-21)
(0.0006247048 -0.0004866527 1.080002e-25)
(0.0008309557 3.607282e-05 4.4041e-23)
(0.0007929542 1.675741e-05 -3.780023e-26)
(0.0008343677 4.226096e-05 2.602503e-22)
(0.000797703 1.673444e-05 -1.165731e-28)
(0.0008217316 1.335191e-05 -1.15264e-27)
(0.0007802961 -5.123087e-05 -3.062463e-22)
(0.0007894144 -5.17698e-05 4.050076e-26)
(0.0007426822 -0.000188846 9.257046e-22)
(0.0007330717 -0.0001573405 -1.051102e-30)
(0.0006771068 -0.0003945735 -4.316786e-26)
(0.0006535406 -0.0003101968 2.002787e-25)
(0.0005823273 -0.0006697308 -1.980199e-26)
(0.0004621357 -0.001027874 3.321928e-21)
(0.0005652898 -0.0005341153 4.649129e-20)
(0.0007536936 4.227933e-05 -3.775598e-26)
(0.0007090857 1.326356e-05 1.632284e-22)
(0.0007492704 4.758537e-05 -7.395826e-26)
(0.0007026205 6.464397e-07 2.063502e-28)
(0.0007299568 1.595679e-05 -7.390524e-26)
(0.0006752877 -8.404536e-05 -6.470432e-22)
(0.0006929492 -5.582292e-05 -4.302496e-26)
(0.0006305037 -0.0002425443 -1.287827e-21)
(0.0006337679 -0.0001719061 -8.360311e-21)
(0.0005586038 -0.0004745779 -2.114398e-21)
(0.0005509595 -0.0003421481 -8.042729e-26)
(0.0004615588 -0.0007801698 -3.783726e-26)
(0.0003409502 -0.00116405 -4.035592e-21)