/*--------------------------------*- C++ -*----------------------------------*\
| =========                 |                                                 |
| \\      /  F ield         | OpenFOAM: The Open Source CFD Toolbox           |
|  \\    /   O peration     | Version:  2206                                  |
|   \\  /    A nd           | Website:  www.openfoam.com                      |
|    \\/     M anipulation  |                                                 |
\*---------------------------------------------------------------------------*/
FoamFile
{
    version     2.0;
    format      ascii;
    arch        "LSB;label=32;scalar=64";
    class       surfaceVectorField;
    location    "2.4";
    object      Ufb_0;
}
// * * * * * * * * * * * * * * * * * * * * * * * * * * * * * * * * * * * * * //

dimensions      [0 1 -1 0 0 0 0];

internalField   nonuniform List<vector> 
26037
(
(-5.757713e-06 8.404784e-05 1.070821e-21)
(3.914199e-05 8.986674e-06 -2.253128e-27)
(-6.981386e-06 3.926792e-05 7.618354e-23)
(4.212547e-06 5.009049e-05 2.219381e-24)
(-6.125544e-06 1.536709e-05 1.489572e-27)
(-1.940266e-06 2.640165e-05 1.492954e-27)
(-5.978334e-06 5.894019e-06 2.387157e-28)
(-5.149422e-06 1.216372e-05 0)
(-5.965351e-06 1.278742e-06 6.722006e-24)
(-5.271832e-06 4.232206e-06 2.39396e-28)
(-6.070325e-06 -2.283583e-06 2.114907e-28)
(-5.432696e-06 -2.334275e-07 -3.551426e-27)
(-5.701599e-06 -3.638669e-06 6.995615e-29)
(-6.224545e-06 -5.251945e-06 2.511828e-24)
(1.566409e-05 5.671501e-05 -1.151148e-29)
(7.363073e-05 8.983047e-06 1.8755e-27)
(7.278597e-07 3.311058e-05 -1.162212e-29)
(2.380104e-05 3.09399e-05 -9.67663e-28)
(-2.365282e-06 1.538516e-05 0)
(5.098131e-06 2.078394e-05 -4.004156e-28)
(-4.056118e-06 6.654207e-06 7.090703e-31)
(-9.018308e-07 1.034836e-05 -5.910644e-28)
(-4.600768e-06 1.52774e-06 1.310856e-30)
(-2.93898e-06 4.05319e-06 9.078284e-26)
(-5.045207e-06 -2.237555e-06 2.12715e-30)
(-4.012712e-06 -2.723639e-07 6.020027e-31)
(-4.709203e-06 -3.674845e-06 6.500219e-27)
(-5.44954e-06 -5.268451e-06 5.435114e-30)
(4.06909e-05 2.453884e-05 9.146301e-28)
(3.892257e-05 6.616312e-06 1.585464e-22)
(1.453005e-05 1.905289e-05 -1.370654e-27)
(1.895192e-05 1.566542e-05 -4.086197e-23)
(3.07953e-06 1.180911e-05 -2.270846e-24)
(7.820668e-06 1.259604e-05 -1.225107e-27)
(-9.330409e-07 5.945287e-06 -3.769992e-24)
(2.158545e-06 7.741486e-06 -8.286765e-28)
(-2.732311e-06 1.380604e-06 -1.999646e-28)
(-7.753783e-07 3.277788e-06 -1.414562e-25)
(-3.789539e-06 -2.262403e-06 3.180969e-34)
(-2.467775e-06 -5.485716e-07 0)
(-3.568523e-06 -3.795644e-06 -8.34022e-27)
(-4.534272e-06 -5.287487e-06 -1.969461e-31)
(2.665903e-05 1.212794e-05 -3.469151e-28)
(2.616685e-05 4.283471e-06 9.913071e-28)
(1.379987e-05 1.206877e-05 -2.166276e-27)
(1.66544e-05 9.411445e-06 -2.296372e-23)
(5.883736e-06 8.827523e-06 3.713542e-25)
(9.351262e-06 8.43967e-06 -2.330715e-24)
(1.595973e-06 4.798646e-06 -2.319131e-28)
(4.394639e-06 5.691329e-06 3.729987e-24)
(-8.234181e-07 9.629831e-07 3.089881e-30)
(1.22542e-06 2.327192e-06 2.824875e-28)
(-2.364934e-06 -2.42322e-06 -2.443035e-31)
(-8.360385e-07 -1.002678e-06 -3.633636e-33)
(-2.277661e-06 -4.045043e-06 -2.08274e-29)
(-3.456004e-06 -5.37589e-06 -1.25769e-29)
(2.047994e-05 7.247854e-06 -5.717972e-25)
(2.145202e-05 2.875174e-06 2.122287e-30)
(1.341794e-05 8.200832e-06 -6.346136e-25)
(1.586683e-05 6.175043e-06 -5.199534e-28)
(7.730506e-06 6.420032e-06 -1.229856e-27)
(1.053401e-05 5.850653e-06 -7.44111e-28)
(3.734415e-06 3.517999e-06 -2.928687e-25)
(6.294977e-06 3.918063e-06 -4.896342e-26)
(1.040585e-06 3.353007e-07 -5.663597e-25)
(3.173349e-06 1.260599e-06 -1.373947e-24)
(-8.154225e-07 -2.767213e-06 -2.96511e-25)
(8.806668e-07 -1.628829e-06 4.033961e-29)
(-8.476894e-07 -4.473015e-06 2.376586e-27)
(-2.224157e-06 -5.613132e-06 -2.058306e-29)
(1.824881e-05 4.584743e-06 -6.117913e-30)
(1.921865e-05 1.885349e-06 0)
(1.363433e-05 5.482782e-06 4.178606e-25)
(1.56644e-05 3.991316e-06 -4.449938e-28)
(9.23189e-06 4.362786e-06 -5.876136e-25)
(1.16727e-05 3.770759e-06 -2.873183e-28)
(5.679106e-06 2.133577e-06 3.253479e-25)
(8.058224e-06 2.291461e-06 -2.048511e-28)
(2.920412e-06 -5.486221e-07 3.089123e-29)
(5.069386e-06 4.246181e-08 -8.643062e-26)
(8.067806e-07 -3.341008e-06 -2.389826e-25)
(2.659859e-06 -2.492973e-06 3.974783e-29)
(6.904925e-07 -5.111698e-06 -6.078508e-30)
(-8.610784e-07 -6.056483e-06 3.809922e-25)
(1.735643e-05 2.828214e-06 -4.386425e-28)
(1.829109e-05 1.164366e-06 9.329625e-28)
(1.41369e-05 3.369015e-06 -7.343299e-28)
(1.589252e-05 2.336738e-06 -3.712913e-24)
(1.067729e-05 2.506874e-06 -3.567209e-24)
(1.284724e-05 1.984364e-06 -2.00017e-24)
(7.489764e-06 6.696525e-07 -1.586521e-28)
(9.763482e-06 6.898529e-07 6.555755e-29)
(4.790816e-06 -1.668098e-06 1.669671e-25)
(6.923047e-06 -1.293563e-06 -7.260318e-28)
(2.509491e-06 -4.196863e-06 -1.201244e-30)
(4.458395e-06 -3.608017e-06 1.306425e-30)
(2.307677e-06 -6.024667e-06 6.618742e-30)
(5.826143e-07 -6.743031e-06 -1.485407e-30)
(1.725932e-05 1.580144e-06 4.988434e-28)
(1.820213e-05 6.267903e-07 7.405027e-24)
(1.488302e-05 1.656555e-06 -8.153882e-28)
(1.647872e-05 1.026683e-06 4.562959e-28)
(1.208762e-05 7.94895e-07 -3.848119e-28)
(1.406758e-05 4.154265e-07 2.006677e-29)
(9.230363e-06 -8.645346e-07 -5.064985e-28)
(1.139739e-05 -8.882732e-07 1.890248e-31)
(6.610049e-06 -2.982213e-06 -5.002138e-28)
(8.730106e-06 -2.744007e-06 -9.89515e-25)
(4.252963e-06 -5.329346e-06 7.778711e-26)
(6.255346e-06 -4.912485e-06 8.697849e-30)
(3.963395e-06 -7.219574e-06 6.664504e-30)
(2.11239e-06 -7.720471e-06 -8.110849e-29)
(1.772846e-05 6.415953e-07 8.902963e-28)
(1.873498e-05 2.086685e-07 -5.779441e-24)
(1.587887e-05 2.259197e-07 1.291654e-27)
(1.740711e-05 -5.213466e-08 4.689542e-24)
(1.353405e-05 -7.955664e-07 2.469884e-25)
(1.54166e-05 -1.004524e-06 1.652616e-24)
(1.094768e-05 -2.429481e-06 -1.153162e-27)
(1.305351e-05 -2.428521e-06 -7.626243e-28)
(8.410729e-06 -4.447012e-06 1.346416e-25)
(1.053089e-05 -4.280505e-06 -1.343928e-24)
(5.990243e-06 -6.682526e-06 6.192734e-30)
(8.053037e-06 -6.394816e-06 6.190825e-30)
(5.646635e-06 -8.63592e-06 0)
(3.699563e-06 -8.983285e-06 1.091505e-28)
(1.866147e-05 -1.066569e-07 -4.104211e-29)
(1.977597e-05 -1.354169e-07 -9.766951e-28)
(1.713573e-05 -1.011991e-06 1.367916e-27)
(1.867734e-05 -9.814294e-07 9.361828e-28)
(1.50929e-05 -2.288695e-06 -3.182802e-28)
(1.695299e-05 -2.313447e-06 1.36756e-27)
(1.270226e-05 -4.017999e-06 -7.572882e-28)
(1.479999e-05 -3.947396e-06 -2.362421e-24)
(1.022574e-05 -6.037455e-06 -1.885146e-31)
(1.237326e-05 -5.894308e-06 1.731033e-24)
(7.747909e-06 -8.238668e-06 0)
(9.88197e-06 -8.035175e-06 0)
(7.364756e-06 -1.027118e-05 0)
(5.307208e-06 -1.049713e-05 1.799191e-28)
(2.001075e-05 -7.418816e-07 0)
(2.126602e-05 -4.36036e-07 0)
(1.867691e-05 -2.127151e-06 9.355054e-28)
(2.02945e-05 -1.820728e-06 -1.090131e-27)
(1.68214e-05 -3.722161e-06 1.143438e-28)
(1.872713e-05 -3.55632e-06 3.419338e-24)
(1.455131e-05 -5.632184e-06 -8.355002e-28)
(1.66919e-05 -5.46616e-06 8.150301e-29)
(1.209982e-05 -7.741908e-06 2.93728e-31)
(1.431144e-05 -7.586015e-06 -2.142969e-24)
(9.553062e-06 -9.98064e-06 0)
(1.178107e-05 -9.82657e-06 0)
(9.142517e-06 -1.211732e-05 6.187484e-28)
(6.96212e-06 -1.224964e-05 -1.803247e-28)
(2.17561e-05 -1.315957e-06 -1.089678e-27)
(2.318114e-05 -7.145745e-07 0)
(2.052407e-05 -3.172571e-06 -6.524572e-29)
(2.226585e-05 -2.615262e-06 -4.196313e-24)
(1.87683e-05 -5.121424e-06 1.951358e-27)
(2.077312e-05 -4.774073e-06 1.017597e-27)
(1.655097e-05 -7.287542e-06 -7.521491e-26)
(1.878957e-05 -7.009867e-06 3.011453e-24)
(1.408185e-05 -9.562599e-06 -8.40558e-28)
(1.640033e-05 -9.36714e-06 -1.772632e-27)
(1.144195e-05 -1.190493e-05 6.185353e-28)
(1.379459e-05 -1.177306e-05 8.063192e-28)
(1.101306e-05 -1.417552e-05 1.681923e-24)
(8.68824e-06 -1.42377e-05 -3.943828e-26)
(2.389576e-05 -1.858608e-06 -1.201445e-27)
(2.551442e-05 -9.856918e-07 -1.3605e-27)
(2.270172e-05 -4.193189e-06 4.74842e-27)
(2.461206e-05 -3.398933e-06 -1.201641e-27)
(2.097751e-05 -6.534139e-06 1.017916e-27)
(2.313252e-05 -6.00163e-06 -1.995456e-29)
(1.875402e-05 -9.007789e-06 9.205763e-29)
(2.113733e-05 -8.605273e-06 1.023356e-27)
(1.622141e-05 -1.15123e-05 -1.242776e-28)
(1.869251e-05 -1.125523e-05 -3.045295e-24)
(1.345507e-05 -1.401766e-05 8.070264e-28)
(1.596807e-05 -1.388779e-05 2.440269e-24)
(1.301385e-05 -1.645476e-05 -2.058694e-24)
(1.051619e-05 -1.646541e-05 6.961526e-31)
(2.64419e-05 -2.398635e-06 -1.360762e-27)
(2.827986e-05 -1.259035e-06 -4.845517e-24)
(2.523941e-05 -5.223963e-06 -1.110233e-29)
(2.735663e-05 -4.197482e-06 0)
(2.348725e-05 -7.989526e-06 -1.341268e-26)
(2.584192e-05 -7.274844e-06 -3.796916e-29)
(2.120827e-05 -1.081212e-05 -2.129966e-27)
(2.377571e-05 -1.029591e-05 1.53937e-27)
(1.856749e-05 -1.36116e-05 -1.178099e-27)
(2.124381e-05 -1.325303e-05 -4.079458e-24)
(1.563407e-05 -1.633286e-05 1.470485e-28)
(1.834484e-05 -1.618564e-05 9.177714e-28)
(1.518461e-05 -1.897025e-05 1.120733e-28)
(1.248067e-05 -1.894448e-05 -2.297092e-28)
(2.941826e-05 -2.952758e-06 -1.512059e-27)
(3.150238e-05 -1.542199e-06 -1.511362e-27)
(2.817333e-05 -6.294195e-06 -2.683707e-29)
(3.053299e-05 -5.02944e-06 -1.643378e-27)
(2.634369e-05 -9.529359e-06 -8.572721e-27)
(2.895463e-05 -8.610967e-06 -2.684391e-29)
(2.399986e-05 -1.272827e-05 -1.647706e-25)
(2.68064e-05 -1.207822e-05 3.724302e-24)
(2.118509e-05 -1.587367e-05 -8.011265e-28)
(2.413849e-05 -1.542935e-05 -7.485924e-28)
(1.802627e-05 -1.886812e-05 8.8292e-28)
(2.098312e-05 -1.869528e-05 6.948355e-29)
(1.757024e-05 -2.174553e-05 2.893252e-24)
(1.462026e-05 -2.16932e-05 1.594968e-27)
(3.285554e-05 -3.533064e-06 -1.642584e-27)
(3.521476e-05 -1.841914e-06 0)
(3.153842e-05 -7.418848e-06 -1.643709e-27)
(3.417418e-05 -5.913033e-06 -5.447927e-24)
(2.961409e-05 -1.114462e-05 1.509462e-27)
(3.248958e-05 -1.003582e-05 -1.854373e-29)
(2.714155e-05 -1.477766e-05 -9.545155e-26)
(3.019912e-05 -1.397501e-05 1.485231e-27)
(2.407978e-05 -1.833832e-05 1.266003e-28)
(2.733475e-05 -1.78049e-05 5.698372e-29)
(2.067338e-05 -2.165518e-05 -1.355624e-25)
(2.391901e-05 -2.144769e-05 6.945336e-29)
(2.021215e-05 -2.481046e-05 1.090272e-27)
(1.697461e-05 -2.473862e-05 1.183171e-27)
(3.679345e-05 -4.153635e-06 -3.677867e-27)
(3.946088e-05 -2.164362e-06 -2.114616e-27)
(3.537471e-05 -8.628883e-06 -3.698925e-27)
(3.832842e-05 -6.866207e-06 -5.984161e-24)
(3.330868e-05 -1.290226e-05 4.484854e-26)
(3.650686e-05 -1.158236e-05 -6.13207e-29)
(3.064711e-05 -1.702727e-05 -2.622721e-29)
(3.403064e-05 -1.606567e-05 -5.549042e-29)
(2.732732e-05 -2.10349e-05 0)
(3.092337e-05 -2.039318e-05 0)
(2.362387e-05 -2.472389e-05 0)
(2.720501e-05 -2.447123e-05 -1.600164e-27)
(2.315484e-05 -2.819793e-05 -2.111828e-28)
(1.958485e-05 -2.811195e-05 -1.050256e-28)
(4.128088e-05 -4.824983e-06 4.659379e-27)
(4.429275e-05 -2.514639e-06 -6.789777e-24)
(3.973503e-05 -9.940936e-06 9.33592e-26)
(4.304825e-05 -7.903062e-06 -4.393401e-27)
(3.749008e-05 -1.481382e-05 6.566944e-26)
(4.105971e-05 -1.326852e-05 -1.161436e-28)
(3.459477e-05 -1.948478e-05 -3.014916e-29)
(3.835734e-05 -1.835396e-05 -9.740882e-29)
(3.097552e-05 -2.399001e-05 -1.618765e-27)
(3.495993e-05 -2.32285e-05 0)
(2.692625e-05 -2.81095e-05 2.495862e-25)
(3.089932e-05 -2.779512e-05 -5.209169e-24)
(2.644507e-05 -3.194635e-05 -3.306081e-28)
(2.249369e-05 -3.184928e-05 3.302068e-25)
(4.637399e-05 -5.557123e-06 -1.901994e-27)
(4.977045e-05 -2.897692e-06 -5.045129e-27)
(4.467606e-05 -1.137402e-05 1.087153e-25)
(4.839355e-05 -9.037974e-06 -7.308002e-24)
(4.221661e-05 -1.690685e-05 1.739119e-25)
(4.620844e-05 -1.511834e-05 -2.569838e-27)
(3.903651e-05 -2.218296e-05 -6.88253e-29)
(4.32386e-05 -2.087941e-05 -6.772403e-29)
(3.508204e-05 -2.72238e-05 -1.727856e-27)
(3.948961e-05 -2.638662e-05 7.462659e-28)
(3.063733e-05 -3.185317e-05 -1.826062e-27)
(3.507729e-05 -3.141419e-05 -5.925108e-28)
(3.013012e-05 -3.609148e-05 1.496205e-28)
(2.574638e-05 -3.599245e-05 3.925895e-25)
(5.21367e-05 -6.359788e-06 -7.876827e-27)
(5.596196e-05 -3.318123e-06 -8.288686e-24)
(5.026289e-05 -1.294681e-05 -7.704081e-27)
(5.443201e-05 -1.028373e-05 -8.061999e-24)
(4.756074e-05 -1.921194e-05 -2.498308e-27)
(5.202495e-05 -1.714823e-05 -7.698138e-24)
(4.40434e-05 -2.518531e-05 7.395009e-28)
(4.877629e-05 -2.364442e-05 -2.56049e-27)
(3.979139e-05 -3.079153e-05 -2.433215e-24)
(4.471235e-05 -2.982213e-05 8.528673e-28)
(3.484584e-05 -3.598385e-05 -9.053584e-25)
(3.987652e-05 -3.546633e-05 -1.015704e-27)
(3.428488e-05 -4.068724e-05 2.017956e-27)
(2.93992e-05 -4.058472e-05 2.690621e-28)
(5.863955e-05 -7.241877e-06 2.052794e-27)
(6.294268e-05 -3.781052e-06 -3.005848e-27)
(5.656275e-05 -1.467341e-05 -1.563421e-25)
(6.123526e-05 -1.165523e-05 -8.953084e-24)
(5.35849e-05 -2.173265e-05 -8.145124e-27)
(5.85688e-05 -1.938321e-05 -8.657876e-24)
(4.974097e-05 -2.842353e-05 -3.108899e-25)
(5.497604e-05 -2.6684e-05 -8.267167e-24)
(4.510866e-05 -3.46855e-05 -1.991883e-27)
(5.050131e-05 -3.355487e-05 1.097659e-28)
(3.952655e-05 -4.055487e-05 -3.36875e-28)
(4.516087e-05 -3.997042e-05 -6.646294e-24)
(3.895767e-05 -4.578701e-05 6.407307e-24)
(3.350468e-05 -4.568475e-05 5.382244e-25)
(6.596208e-05 -8.214611e-06 -3.269403e-27)
(7.07981e-05 -4.291636e-06 3.79812e-27)
(6.365298e-05 -1.657895e-05 -1.694113e-25)
(6.888828e-05 -1.316811e-05 -3.269881e-27)
(6.035625e-05 -2.452479e-05 -9.081728e-27)
(6.59309e-05 -2.185165e-05 -3.123347e-27)
(5.611198e-05 -3.204619e-05 -5.968378e-27)
(6.195457e-05 -3.005536e-05 -9.22165e-24)
(5.099653e-05 -3.906079e-05 -2.375064e-27)
(5.700571e-05 -3.775595e-05 3.239382e-27)
(4.480676e-05 -4.56241e-05 -2.382622e-27)
(5.108675e-05 -4.493454e-05 -2.425394e-27)
(4.42298e-05 -5.142557e-05 -7.838319e-24)
(3.813311e-05 -5.135138e-05 -1.435182e-27)
(7.419297e-05 -9.287389e-06 3.798806e-27)
(7.962165e-05 -4.854352e-06 1.124152e-23)
(7.162251e-05 -1.868018e-05 0)
(7.748224e-05 -1.483526e-05 0)
(6.797003e-05 -2.760501e-05 1.074588e-28)
(7.420098e-05 -2.457229e-05 0)
(6.327112e-05 -3.604468e-05 -4.353655e-25)
(6.979899e-05 -3.377667e-05 1.041089e-23)
(5.759198e-05 -4.389603e-05 3.305934e-27)
(6.431455e-05 -4.242647e-05 1.038729e-23)
(5.076127e-05 -5.119328e-05 -2.477729e-27)
(5.772857e-05 -5.050838e-05 -3.14349e-27)
(5.022808e-05 -5.758376e-05 -2.461667e-27)
(4.336217e-05 -5.764214e-05 -4.935151e-27)
(8.342862e-05 -1.046912e-05 8.542578e-27)
(8.951519e-05 -5.473643e-06 1.239642e-23)
(8.056604e-05 -2.099347e-05 0)
(8.711598e-05 -1.666883e-05 3.047369e-29)
(7.6523e-05 -3.099806e-05 3.650947e-27)
(8.347732e-05 -2.756251e-05 4.541877e-27)
(7.133528e-05 -4.04649e-05 4.633765e-25)
(7.86176e-05 -3.786302e-05 3.790021e-27)
(6.502145e-05 -4.931347e-05 3.825445e-27)
(7.260833e-05 -4.754039e-05 1.010367e-23)
(5.765422e-05 -5.739718e-05 -3.163202e-27)
(6.546657e-05 -5.65718e-05 -7.345046e-24)
(5.719852e-05 -6.451412e-05 0)
(4.932859e-05 -6.462299e-05 2.365065e-27)
(9.377256e-05 -1.176825e-05 4.831129e-27)
(0.000100588 -6.153882e-06 4.797805e-27)
(9.058305e-05 -2.353346e-05 -2.214423e-25)
(9.7894e-05 -1.868161e-05 -5.220036e-27)
(8.610826e-05 -3.471765e-05 4.681121e-27)
(9.385722e-05 -3.084362e-05 1.30499e-23)
(8.038893e-05 -4.528611e-05 -5.428968e-25)
(8.848284e-05 -4.234674e-05 1.38469e-28)
(7.347848e-05 -5.511933e-05 -3.382397e-27)
(8.184263e-05 -5.314209e-05 -1.236255e-23)
(6.547202e-05 -6.412544e-05 -3.658292e-27)
(7.39794e-05 -6.312044e-05 -2.636097e-27)
(6.484046e-05 -7.222697e-05 5.360816e-28)
(5.597103e-05 -7.23328e-05 2.160998e-27)
(0.0001053371 -1.319369e-05 -5.247138e-27)
(0.0001129591 -6.898979e-06 -6.049944e-27)
(0.0001017824 -2.631905e-05 -2.048075e-28)
(0.0001099323 -2.088594e-05 -1.474726e-23)
(9.683206e-05 -3.880045e-05 5.051033e-27)
(0.0001054571 -3.443681e-05 1.07144e-26)
(9.052181e-05 -5.060338e-05 -4.051951e-27)
(9.95284e-05 -4.726342e-05 0)
(8.291357e-05 -6.16104e-05 -1.448094e-24)
(9.221973e-05 -5.931871e-05 -4.487602e-27)
(7.409444e-05 -7.17043e-05 -2.069373e-24)
(8.356794e-05 -7.047492e-05 9.30176e-28)
(7.347724e-05 -8.071716e-05 1.134163e-27)
(6.352693e-05 -8.095066e-05 -8.687952e-29)
(0.0001182441 -1.475179e-05 -1.194333e-26)
(0.0001267545 -7.712296e-06 -1.633145e-23)
(0.000114284 -2.93647e-05 -2.341205e-28)
(0.0001233565 -2.328852e-05 -1.250281e-26)
(0.0001088161 -4.326173e-05 5.668096e-27)
(0.0001183968 -3.835666e-05 1.589566e-23)
(0.0001018738 -5.641543e-05 -4.346754e-28)
(0.0001118724 -5.262626e-05 0)
(9.351233e-05 -6.870901e-05 1.591586e-24)
(0.0001038531 -6.60635e-05 -4.347376e-28)
(8.379937e-05 -8.000812e-05 -2.247171e-24)
(9.435648e-05 -7.857004e-05 -5.14701e-27)
(8.326863e-05 -9.01951e-05 5.232854e-29)
(7.2216e-05 -9.039296e-05 4.062312e-27)
(0.0001326271 -1.644298e-05 -1.33935e-26)
(0.0001421133 -8.589511e-06 -1.44028e-26)
(0.0001282186 -3.268242e-05 -2.480622e-28)
(0.000138309 -2.589625e-05 -1.832396e-23)
(0.0001221836 -4.811748e-05 6.365819e-27)
(0.0001328048 -4.261887e-05 6.360832e-27)
(0.0001145709 -6.274198e-05 0)
(0.0001256403 -5.845073e-05 6.345918e-27)
(0.0001054388 -7.646005e-05 -5.137516e-27)
(0.0001168832 -7.337442e-05 -5.379909e-28)
(9.479373e-05 -8.921073e-05 -5.774589e-27)
(0.0001066223 -8.727625e-05 -1.311678e-23)
(9.48831e-05 -0.0001001223 3.524289e-24)
(8.274065e-05 -0.0001008282 1.260556e-23)
(0.0001486281 -1.825667e-05 1.804184e-25)
(0.0001591603 -9.560269e-06 -1.852123e-23)
(0.0001437238 -3.62891e-05 -7.457676e-27)
(0.0001549486 -2.866368e-05 -7.476239e-27)
(0.0001370633 -5.338471e-05 6.340727e-27)
(0.0001488152 -4.72248e-05 -8.158836e-27)
(0.0001287237 -6.959244e-05 1.552025e-24)
(0.0001409577 -6.476871e-05 1.947584e-23)
(0.0001187467 -8.478781e-05 -1.150614e-26)
(0.0001313691 -8.132799e-05 -7.652513e-27)
(0.0001071419 -9.876947e-05 -2.537665e-24)
(0.0001200773 -9.678086e-05 -1.984563e-23)
(0.0001069621 -0.0001109088 -2.12711e-23)
(9.393062e-05 -0.0001111707 -9.764487e-24)
(0.0001664442 -2.017528e-05 -8.56425e-27)
(0.0001781921 -1.056581e-05 -8.486278e-27)
(0.0001610117 -4.015185e-05 -8.179171e-27)
(0.0001734961 -3.167769e-05 0)
(0.0001536264 -5.908324e-05 7.269183e-25)
(0.0001666344 -5.217789e-05 -2.267604e-23)
(0.0001445032 -7.704409e-05 2.638095e-28)
(0.0001580217 -7.160119e-05 7.365483e-27)
(0.0001336098 -9.397172e-05 -2.019571e-26)
(0.0001475903 -8.99779e-05 -2.180451e-23)
(0.000120881 -0.0001097476 -1.896729e-26)
(0.0001353332 -0.0001072805 -2.251925e-23)
(0.0001210588 -0.0001234246 7.869579e-28)
(0.0001062052 -0.000124159 -1.552834e-26)
(0.0001862106 -2.227457e-05 0)
(0.0001992516 -1.166177e-05 -1.070913e-26)
(0.0001801098 -4.427121e-05 -1.795783e-26)
(0.0001938554 -3.506006e-05 1.02525e-26)
(0.0001720572 -6.521882e-05 -1.789052e-26)
(0.000186439 -5.733948e-05 -2.631869e-23)
(0.0001621209 -8.508287e-05 -1.599201e-26)
(0.0001770173 -7.887121e-05 0)
(0.0001503415 -0.0001038988 -2.338992e-26)
(0.0001657333 -9.926188e-05 -2.432238e-23)
(0.0001366373 -0.0001216671 -7.666144e-28)
(0.0001525979 -0.0001185391 -7.381113e-27)
(0.0001374765 -0.0001367286 2.028217e-23)
(0.0001207453 -0.0001383547 6.737092e-27)
(0.0002080238 -2.468721e-05 6.69612e-25)
(0.0002227085 -1.286693e-05 -2.609902e-23)
(0.000201359 -4.862832e-05 2.017757e-26)
(0.0002166216 -3.856065e-05 2.449836e-23)
(0.0001926692 -7.160307e-05 9.855957e-27)
(0.0002084933 -6.305507e-05 4.868932e-23)
(0.0001818182 -9.366604e-05 -9.004964e-27)
(0.0001983059 -8.636016e-05 2.164202e-26)
(0.0001691023 -0.0001144881 -9.002837e-27)
(0.0001859693 -0.0001091158 -1.82932e-26)
(0.0001544589 -0.0001342827 5.53157e-27)
(0.0001719399 -0.0001305719 9.558184e-28)
(0.0001557207 -0.0001509358 4.421381e-27)
(0.0001376205 -0.000152861 5.708891e-24)
(0.0002324133 -2.710498e-05 -3.16486e-28)
(0.000248589 -1.411523e-05 -1.188832e-26)
(0.0002248911 -5.331139e-05 4.494707e-26)
(0.0002417651 -4.207224e-05 1.170088e-26)
(0.0002155973 -7.82939e-05 5.543687e-26)
(0.000232995 -6.892709e-05 2.530309e-23)
(0.0002039651 -0.0001026734 -2.259248e-24)
(0.0002222851 -9.437724e-05 6.17028e-23)
(0.0001901641 -0.0001257732 -8.336234e-27)
(0.0002086811 -0.0001194563 -3.663333e-23)
(0.0001745288 -0.0001479236 -2.027159e-24)
(0.000193763 -0.000143415 3.049806e-27)
(0.0001765044 -0.0001663948 3.790491e-27)
(0.0001564584 -0.0001690043 5.160289e-24)
(0.0002592136 -2.967293e-05 -5.205745e-25)
(0.0002771196 -1.542855e-05 -2.076291e-30)
(0.0002510051 -5.80717e-05 1.312973e-26)
(0.0002693215 -4.58353e-05 -6.424559e-30)
(0.0002409814 -8.516577e-05 -2.03144e-24)
(0.0002597362 -7.485541e-05 2.665821e-26)
(0.0002283907 -0.0001118721 1.374606e-24)
(0.0002481716 -0.0001030729 3.058658e-26)
(0.0002139116 -0.0001376607 -1.097741e-26)
(0.0002342749 -0.0001297888 -2.195885e-26)
(0.0001973448 -0.0001624855 -3.497621e-24)
(0.0002184592 -0.0001567763 1.176189e-26)
(0.0002003155 -0.0001828471 4.893281e-27)
(0.0001782159 -0.0001865156 -3.674262e-24)
(0.0002886712 -3.232517e-05 5.871915e-25)
(0.0003084746 -1.672633e-05 -2.651665e-29)
(0.0002796323 -6.313361e-05 1.346761e-26)
(0.0002996234 -4.958628e-05 -8.146998e-29)
(0.0002686973 -9.273828e-05 1.051719e-24)
(0.0002894892 -8.089312e-05 3.444149e-23)
(0.0002559378 -0.0001213362 7.865616e-24)
(0.0002774539 -0.0001115006 3.525836e-23)
(0.0002410136 -0.0001495923 2.673347e-24)
(0.0002632623 -0.0001409556 1.499762e-26)
(0.0002234647 -0.0001777595 9.661269e-27)
(0.0002468454 -0.000169999 6.148282e-23)
(0.0002275508 -0.0001999895 0)
(0.0002033407 -0.0002050224 -7.676689e-28)
(0.0003208656 -3.482411e-05 0)
(0.0003425843 -1.790343e-05 -6.000157e-29)
(0.0003109909 -6.783973e-05 1.575071e-26)
(0.0003325278 -5.299288e-05 1.793579e-28)
(0.0002997467 -9.954038e-05 3.252041e-26)
(0.000321759 -8.637821e-05 1.636138e-26)
(0.0002865065 -0.0001307595 -6.79112e-27)
(0.0003096203 -0.0001189217 1.671993e-26)
(0.0002716387 -0.0001615982 -9.312479e-25)
(0.0002956124 -0.0001515151 3.478304e-23)
(0.0002535374 -0.0001933153 2.235437e-26)
(0.0002796784 -0.0001835585 1.997257e-26)
(0.0002585885 -0.0002173149 -6.344358e-27)
(0.0002319797 -0.0002242472 -1.129661e-26)
(0.0003556127 -3.696676e-05 1.322351e-24)
(0.0003791446 -1.881397e-05 -2.021426e-26)
(0.0003448196 -7.19834e-05 -1.37658e-24)
(0.0003677961 -5.570806e-05 3.713992e-28)
(0.0003332542 -0.000105803 6.068481e-28)
(0.0003564987 -9.101379e-05 -1.889224e-26)
(0.0003202196 -0.000139207 3.256882e-26)
(0.000344342 -0.0001257791 0)
(0.0003055817 -0.0001726808 3.121483e-26)
(0.0003305136 -0.0001609013 5.538859e-23)
(0.0002868854 -0.0002078286 -6.510834e-24)
(0.0003145635 -0.0001974254 -2.840548e-27)
(0.0002938937 -0.0002334868 -3.797732e-26)
(0.0002642513 -0.0002436446 -5.72745e-24)
(0.0003923928 -3.83707e-05 -1.084047e-24)
(0.0004173558 -1.924837e-05 -6.631615e-24)
(0.0003807702 -7.500993e-05 -1.927961e-26)
(0.0004048166 -5.718777e-05 -2.144894e-26)
(0.0003692148 -0.0001108873 -1.950467e-26)
(0.0003933838 -9.406353e-05 -1.977705e-23)
(0.00035683 -0.0001470069 2.063662e-26)
(0.0003819661 -0.000131003 -1.817593e-27)
(0.0003423334 -0.0001841269 4.892904e-24)
(0.0003695196 -0.0001688323 1.586935e-26)
(0.0003250987 -0.0002216576 -7.826035e-23)
(0.0003539097 -0.0002081873 4.400476e-23)
(0.0003340719 -0.0002481653 -4.667429e-26)
(0.0003011616 -0.0002623179 -1.956462e-23)
(0.0004302465 -3.856727e-05 -4.767511e-25)
(0.0004558217 -1.910379e-05 -2.214764e-26)
(0.0004181821 -7.627218e-05 -4.31914e-26)
(0.0004426185 -5.680887e-05 5.426464e-24)
(0.0004072281 -0.0001138005 -2.338288e-26)
(0.0004315901 -9.471578e-05 2.035839e-27)
(0.0003961224 -0.000151958 -4.476857e-24)
(0.0004214246 -0.0001333513 -8.873953e-28)
(0.0003827618 -0.0001910146 -6.613279e-24)
(0.0004101489 -0.0001731675 -3.033683e-26)
(0.0003659374 -0.0002311218 -2.394702e-23)
(0.0003949669 -0.000214557 7.859686e-27)
(0.0003751252 -0.0002599004 -1.480972e-26)
(0.0003412895 -0.0002763128 -6.45635e-23)
(0.0004678811 -3.731305e-05 2.317387e-26)
(0.0004931496 -1.813304e-05 2.611005e-26)
(0.000456101 -7.498814e-05 -1.376128e-24)
(0.0004798405 -5.467559e-05 -8.039096e-23)
(0.0004462548 -0.0001136108 2.130637e-24)
(0.0004699882 -9.194563e-05 -2.367513e-23)
(0.0004365419 -0.0001531649 -2.460111e-26)
(0.0004613453 -0.0001314369 5.210641e-26)
(0.0004245669 -0.0001942897 -1.528622e-23)
(0.0004517883 -0.0001724703 1.147611e-23)
(0.0004076236 -0.0002383028 -3.229811e-27)
(0.0004388059 -0.0002158834 1.913961e-26)
(0.0004191784 -0.0002638098 3.342825e-30)
(0.000385217 -0.0002848618 -1.202252e-27)
(0.0005033893 -3.482768e-05 7.595241e-26)
(0.0005269273 -1.622406e-05 -7.106974e-23)
(0.0004924926 -7.082548e-05 -1.108502e-23)
(0.0005144644 -5.031425e-05 4.959065e-26)
(0.0004844448 -0.0001087733 7.486971e-26)
(0.0005061782 -8.589369e-05 2.351014e-26)
(0.0004761057 -0.000148817 2.310369e-26)
(0.0004995597 -0.0001240105 -1.107579e-22)
(0.0004654748 -0.0001906806 -1.968369e-23)
(0.0004912812 -0.0001657486 2.750858e-26)
(0.0004492942 -0.0002359306 2.234445e-26)
(0.0004798312 -0.0002112614 -8.187576e-23)
(0.0004592433 -0.0002634831 -1.250481e-26)
(0.0004219926 -0.0002844646 1.188914e-29)
(0.000534837 -3.059346e-05 -1.840335e-24)
(0.0005546376 -1.360793e-05 -1.287515e-27)
(0.0005249838 -6.38977e-05 -1.694163e-28)
(0.0005441332 -4.334397e-05 1.102438e-28)
(0.000518715 -9.923164e-05 7.478589e-28)
(0.0005373841 -7.631868e-05 5.203017e-28)
(0.0005125766 -0.0001385109 5.700194e-26)
(0.0005331221 -0.0001123552 2.234818e-22)
(0.0005027149 -0.0001819205 8.051463e-26)
(0.0005271216 -0.0001539199 -2.350758e-22)
(0.0004845613 -0.0002296241 -7.101612e-23)
(0.0005149816 -0.0002051624 8.421065e-26)
(0.0004844644 -0.0002695606 2.518295e-26)
(0.0004477994 -0.000280888 -4.032581e-22)
(0.0005595397 -2.496034e-05 -2.854063e-26)
(0.0005742118 -1.039954e-05 1.213963e-22)
(0.0005519213 -5.381509e-05 6.291069e-24)
(0.0005664635 -3.45719e-05 2.765692e-28)
(0.0005469041 -8.627567e-05 -6.147956e-26)
(0.000561866 -6.32282e-05 1.345167e-27)
(0.0005428876 -0.0001237147 -1.13165e-22)
(0.0005599212 -9.790449e-05 -6.063621e-26)
(0.000533187 -0.0001682738 1.692028e-25)
(0.0005553421 -0.0001421496 -3.931765e-22)
(0.0005077346 -0.0002188727 9.692378e-26)
(0.0005349994 -0.00020394 -2.078571e-22)
(0.0004847302 -0.000290003 2.155645e-22)
(0.0004569582 -0.0002736895 9.971583e-22)
(0.0005758627 -1.827207e-05 -2.958081e-26)
(0.0005843293 -6.859077e-06 -2.958484e-26)
(0.0005709292 -4.159248e-05 8.300852e-28)
(0.0005800449 -2.452209e-05 3.052901e-28)
(0.0005687825 -6.999874e-05 3.284536e-23)
(0.0005778818 -4.811974e-05 1.486035e-27)
(0.0005648435 -0.0001072728 7.803706e-26)
(0.0005793711 -8.276941e-05 2.543414e-27)
(0.0005518577 -0.0001526487 -1.497835e-21)
(0.0005682724 -0.0001374283 -1.14427e-22)
(0.0005160074 -0.0002080827 7.751641e-26)
(0.0005364293 -0.0002162984 4.594886e-26)
(0.0004684239 -0.000324264 1.207714e-26)
(0.0004480435 -0.0002772781 1.883894e-21)
(0.0005829275 -1.121173e-05 3.046854e-28)
(0.0005847178 -3.302059e-06 0)
(0.0005811214 -2.784059e-05 2.170473e-23)
(0.0005839644 -1.377336e-05 3.075172e-28)
(0.0005815622 -5.13295e-05 1.823608e-27)
(0.000584329 -3.285394e-05 6.663859e-28)
(0.0005767835 -8.880049e-05 1.821421e-22)
(0.0005849479 -7.193804e-05 1.184288e-27)
(0.0005547047 -0.0001377489 7.326499e-26)
(0.0005629695 -0.0001420042 2.010067e-22)
(0.000512851 -0.0002008172 -6.415874e-21)
(0.0005140497 -0.0002440015 6.734639e-22)
(0.0004441874 -0.0003797621 -9.799343e-26)
(0.0004267778 -0.0002819589 2.953447e-21)
(0.0005803013 -4.228396e-06 3.787646e-31)
(0.0005756148 4.098902e-07 -2.887648e-26)
(0.0005810632 -1.332305e-05 1.138337e-30)
(0.0005779598 -3.388187e-06 2.66038e-29)
(0.0005820266 -3.204856e-05 7.601656e-31)
(0.0005782231 -2.162743e-05 4.857774e-31)
(0.0005736533 -7.006622e-05 3.090812e-26)
(0.000570555 -7.020559e-05 -3.308019e-32)
(0.0005450591 -0.0001245379 5.947906e-26)
(0.0005397928 -0.0001566318 3.118077e-26)
(0.0004920014 -0.0001987648 -3.829096e-26)
(0.000480881 -0.0002811422 2.878357e-26)
(0.0003928348 -0.000448658 -1.93119e-21)
(0.0004143225 -0.000308211 -1.494781e-20)
(0.0005680229 3.453793e-06 4.307512e-24)
(0.000556513 4.475423e-06 1.309204e-22)
(0.0005703442 5.606697e-07 2.576186e-29)
(0.0005615362 4.887453e-06 2.822355e-26)
(0.0005671176 -1.686795e-05 -2.872097e-31)
(0.0005569635 -1.922014e-05 -4.122438e-28)
(0.0005546335 -5.483719e-05 -4.020751e-33)
(0.0005357537 -8.037629e-05 2.674423e-26)
(0.0005202769 -0.0001156058 8.611292e-32)
(0.0005028974 -0.0001841171 -2.59746e-26)
(0.0004635617 -0.0001999613 -8.473355e-27)
(0.0004317049 -0.0003290797 -1.22962e-29)
(0.0003403591 -0.0005236023 -8.772365e-27)
(0.0003728152 -0.0003204729 5.568284e-21)
(0.0005444481 1.197509e-05 -1.2297e-23)
(0.0005263281 8.059772e-06 -2.752311e-26)
(0.0005465957 1.234358e-05 2.776066e-26)
(0.0005305521 8.784205e-06 -7.80198e-23)
(0.0005393305 -5.99863e-06 -4.92384e-22)
(0.0005191369 -2.545997e-05 -9.706736e-28)
(0.0005195957 -4.549801e-05 1.142914e-27)
(0.0004907513 -0.0001005408 9.263866e-22)
(0.0004869001 -0.0001158447 -2.608952e-26)
(0.000441361 -0.0002209782 -1.750344e-21)
(0.000434022 -0.0002165768 -4.89955e-29)
(0.0003689443 -0.0003884193 -1.233737e-29)
(0.0003066974 -0.0006182007 -3.99856e-31)
(0.0003373527 -0.0003634555 1.680204e-26)
(0.0005079195 1.968874e-05 2.610732e-26)
(0.0004838289 9.217852e-06 -3.226944e-31)
(0.000507866 2.122123e-05 2.555808e-26)
(0.0004827995 6.250318e-06 2.872244e-27)
(0.0004977018 1.699628e-06 -7.482567e-22)
(0.0004648263 -3.910177e-05 -5.60018e-28)
(0.0004745236 -4.168381e-05 -1.375787e-21)
(0.0004312205 -0.0001287578 -1.34659e-21)
(0.0004348903 -0.000116186 -3.419433e-27)
(0.0003782398 -0.0002649246 2.248343e-21)
(0.0003784753 -0.0002297757 3.515374e-29)
(0.000302372 -0.0004536913 -8.423449e-32)
(0.000204395 -0.0007136104 5.850722e-29)
(0.0003106954 -0.0004077833 2.327769e-26)
(0.0004579858 2.339864e-05 -2.326679e-26)
(0.0004290217 6.749131e-06 1.002788e-26)
(0.0004539369 2.462561e-05 -2.328356e-26)
(0.0004204516 -4.271756e-06 -3.045284e-22)
(0.0004405031 3.400407e-06 -2.348416e-26)
(0.000395695 -6.019998e-05 3.630533e-26)
(0.0004153164 -4.506246e-05 -1.750195e-21)
(0.0003574424 -0.0001636801 -4.046699e-26)
(0.000375224 -0.0001269634 1.481233e-26)
(0.0002992241 -0.0003178155 1.072436e-26)
(0.0003186638 -0.0002550417 2.269497e-29)
(0.0002206475 -0.00052809 3.763365e-29)
(0.0001225901 -0.0008063774 -2.530766e-26)