/*--------------------------------*- C++ -*----------------------------------*\
| =========                 |                                                 |
| \\      /  F ield         | OpenFOAM: The Open Source CFD Toolbox           |
|  \\    /   O peration     | Version:  2206                                  |
|   \\  /    A nd           | Website:  www.openfoam.com                      |
|    \\/     M anipulation  |                                                 |
\*---------------------------------------------------------------------------*/
FoamFile
{
    version     2.0;
    format      ascii;
    arch        "LSB;label=32;scalar=64";
    class       volScalarField;
    location    "20";
    object      nuEffb;
}
// * * * * * * * * * * * * * * * * * * * * * * * * * * * * * * * * * * * * * //

dimensions      [0 2 -1 0 0 0 0];

internalField   nonuniform List<scalar> 
100
(
3.27107e-06
1.98078e-06
1.37621e-06
1.13846e-06
1.05355e-06
1.02148e-06
1.00904e-06
1.00386e-06
1.00168e-06
1.00072e-06
1.00031e-06
1.00013e-06
1.00006e-06
1.00002e-06
1.00001e-06
1e-06
1e-06
1e-06
1e-06
1e-06
1e-06
1e-06
1e-06
1e-06
1e-06
1e-06
1e-06
1.00001e-06
1.00015e-06
1.00248e-06
1.05297e-06
2.17499e-06
7.39721e-06
1.36621e-05
1.99192e-05
2.61226e-05
3.21929e-05
3.80306e-05
4.35751e-05
4.87782e-05
5.3633e-05
5.81124e-05
6.22373e-05
6.59867e-05
6.93616e-05
7.23747e-05
7.49984e-05
7.72509e-05
7.91278e-05
8.06231e-05
8.17299e-05
8.24296e-05
8.27225e-05
8.26015e-05
8.20602e-05
8.10938e-05
7.96997e-05
7.78796e-05
7.55395e-05
7.26436e-05
6.92827e-05
6.54726e-05
6.12476e-05
5.64295e-05
5.0942e-05
4.47389e-05
3.80069e-05
3.07957e-05
2.32736e-05
1.51201e-05
7.05409e-06
3.11442e-06
4.36578e-06
7.65308e-06
9.28428e-06
9.70498e-06
9.80811e-06
9.83967e-06
9.85225e-06
9.85823e-06
9.8607e-06
9.86045e-06
9.8571e-06
9.84894e-06
9.83859e-06
9.83473e-06
9.83659e-06
9.84623e-06
9.84679e-06
9.83916e-06
9.84582e-06
9.84561e-06
9.84946e-06
9.84976e-06
9.84619e-06
9.83505e-06
9.84116e-06
9.83289e-06
9.83989e-06
9.82856e-06
)
;

boundaryField
{
    inlet
    {
        type            cyclic;
    }
    outlet
    {
        type            cyclic;
    }
    top
    {
        type            calculated;
        value           uniform 9.82856e-06;
    }
    bottom
    {
        type            calculated;
        value           uniform 1e-06;
    }
    frontAndBackPlanes
    {
        type            empty;
    }
}


// ************************************************************************* //
