/*--------------------------------*- C++ -*----------------------------------*\
| =========                 |                                                 |
| \\      /  F ield         | OpenFOAM: The Open Source CFD Toolbox           |
|  \\    /   O peration     | Version:  2206                                  |
|   \\  /    A nd           | Website:  www.openfoam.com                      |
|    \\/     M anipulation  |                                                 |
\*---------------------------------------------------------------------------*/
FoamFile
{
    version     2.0;
    format      ascii;
    arch        "LSB;label=32;scalar=64";
    class       volScalarField;
    location    "20";
    object      nuEffa;
}
// * * * * * * * * * * * * * * * * * * * * * * * * * * * * * * * * * * * * * //

dimensions      [0 2 -1 0 0 0 0];

internalField   nonuniform List<scalar> 
100
(
6.23336e-06
5.2841e-06
4.11563e-06
3.01926e-06
2.15445e-06
1.51925e-06
1.07357e-06
7.55441e-07
5.29895e-07
3.67563e-07
2.52691e-07
1.71221e-07
1.14644e-07
7.55416e-08
4.9088e-08
3.13595e-08
1.97225e-08
1.21825e-08
7.3957e-09
4.40299e-09
2.57168e-09
1.49198e-09
7.76804e-09
1.57376e-07
1.17085e-06
4.46464e-06
1.12461e-05
2.22538e-05
3.7797e-05
5.91758e-05
8.45341e-05
3.99137e-05
1.66683e-05
1.24809e-05
1.12992e-05
1.06591e-05
1.03374e-05
1.0125e-05
9.96579e-06
9.73729e-06
9.4548e-06
8.58771e-06
8.03088e-06
4.36002e-06
6.05217e-18
1.78822e-34
5.4818e-46
2.05013e-57
5.16857e-69
1.68677e-80
3.82957e-92
1.21726e-103
1.51654e-114
4.3607e-125
1.23661e-135
2.88411e-146
5.57974e-157
1.29188e-162
3.47829e-164
1.84759e-168
4.91229e-170
1.43374e-174
3.93956e-176
8.51462e-186
3.91636e-191
6.03443e-195
2.36996e-196
6.61526e-198
1.18038e-199
8.09988e-209
1.83649e-211
5.80902e-213
1.36896e-214
2.55274e-216
1.33474e-225
3.54261e-235
6.03908e-245
8.8497e-254
1.60807e-255
1.04961e-258
2.13962e-260
2.97186e-263
6.28536e-265
1.41351e-267
3.02341e-269
4.5136e-272
9.79535e-274
8.53777e-277
1.88899e-278
8.81999e-282
1.99644e-283
4.4973e-287
1.04443e-288
9.26208e-293
2.21113e-294
4.89227e-299
1.20215e-300
2.73605e-307
6.90811e-309
9.5908e-320
)
;

boundaryField
{
    inlet
    {
        type            cyclic;
    }
    outlet
    {
        type            cyclic;
    }
    top
    {
        type            calculated;
        value           uniform 0;
    }
    bottom
    {
        type            calculated;
        value           uniform 6.23336e-06;
    }
    frontAndBackPlanes
    {
        type            empty;
    }
}


// ************************************************************************* //
