/*--------------------------------*- C++ -*----------------------------------*\
| =========                 |                                                 |
| \\      /  F ield         | OpenFOAM: The Open Source CFD Toolbox           |
|  \\    /   O peration     | Version:  2206                                  |
|   \\  /    A nd           | Website:  www.openfoam.com                      |
|    \\/     M anipulation  |                                                 |
\*---------------------------------------------------------------------------*/
FoamFile
{
    version     2.0;
    format      ascii;
    arch        "LSB;label=32;scalar=64";
    class       volScalarField;
    location    "20";
    object      p_rbgh;
}
// * * * * * * * * * * * * * * * * * * * * * * * * * * * * * * * * * * * * * //

dimensions      [1 -1 -2 0 0 0 0];

internalField   nonuniform List<scalar> 
100
(
0.231931
0.231862
0.23186
0.231849
0.23185
0.23185
0.231852
0.231855
0.231859
0.231863
0.231868
0.231874
0.231881
0.231889
0.231899
0.231908
0.231922
0.231929
0.23196
0.231938
0.232037
0.231905
0.232199
0.231771
0.23254
0.231383
0.233325
0.230328
0.235221
0.227614
0.239218
0.222553
0.122313
0.0549905
0.0237606
0.0120162
0.00537097
0.00274089
0.00126457
0.000629853
0.000306645
0.000159862
6.642e-05
6.15077e-05
-1.87861e-05
2.21763e-05
-6.15898e-08
1.22764e-05
5.38876e-06
9.07023e-06
7.21986e-06
7.98006e-06
7.69664e-06
7.76998e-06
7.78421e-06
7.78289e-06
7.80237e-06
7.8255e-06
7.82615e-06
7.84995e-06
7.86286e-06
7.8472e-06
7.85082e-06
7.85912e-06
7.8415e-06
7.83124e-06
7.85111e-06
7.86485e-06
7.84905e-06
7.83206e-06
7.84276e-06
7.86679e-06
7.86574e-06
7.81343e-06
7.70576e-06
7.55268e-06
7.3734e-06
7.18692e-06
6.99248e-06
6.77869e-06
6.54708e-06
6.30112e-06
6.03417e-06
5.75841e-06
5.49266e-06
5.22206e-06
4.94467e-06
4.65462e-06
4.32679e-06
3.99692e-06
3.64992e-06
3.32333e-06
2.98688e-06
2.64673e-06
2.26398e-06
1.86273e-06
1.46396e-06
1.06249e-06
6.7215e-07
2.3168e-07
)
;

boundaryField
{
    inlet
    {
        type            cyclic;
    }
    outlet
    {
        type            cyclic;
    }
    top
    {
        type            fixedValue;
        value           uniform 0;
    }
    bottom
    {
        type            fixedFluxPressure;
        gradient        uniform 0;
        value           uniform 0.231931;
    }
    frontAndBackPlanes
    {
        type            empty;
    }
}


// ************************************************************************* //
