/*--------------------------------*- C++ -*----------------------------------*\
| =========                 |                                                 |
| \\      /  F ield         | OpenFOAM: The Open Source CFD Toolbox           |
|  \\    /   O peration     | Version:  2206                                  |
|   \\  /    A nd           | Website:  www.openfoam.com                      |
|    \\/     M anipulation  |                                                 |
\*---------------------------------------------------------------------------*/
FoamFile
{
    version     2.0;
    format      ascii;
    arch        "LSB;label=32;scalar=64";
    class       volScalarField;
    location    "20";
    object      pa;
}
// * * * * * * * * * * * * * * * * * * * * * * * * * * * * * * * * * * * * * //

dimensions      [1 -1 -2 0 0 0 0];

internalField   nonuniform List<scalar> 
100
(
0.00292831
0.00210607
0.00127756
0.000688206
0.000350429
0.000174426
8.71062e-05
4.31746e-05
2.12461e-05
1.02335e-05
4.8378e-06
2.22368e-06
9.97267e-07
4.3352e-07
1.83138e-07
7.48434e-08
2.96196e-08
1.13185e-08
4.17419e-09
1.48208e-09
5.06044e-10
1.70675e-10
4.63211e-09
1.90577e-06
0.000105677
0.00154054
0.00980922
0.0384821
0.112112
0.27491
0.576663
0.304931
0.0936817
0.0390391
0.017475
0.00747479
0.00340821
0.00143171
0.000699942
0.000274561
0.000149844
4.90805e-05
3.20568e-05
6.38823e-06
6.59389e-19
1.75763e-40
5.35369e-52
2.00768e-63
5.05187e-75
1.64976e-86
3.74374e-98
1.19005e-109
1.48233e-120
4.26218e-131
1.20854e-141
2.81852e-152
5.45241e-163
1.26235e-168
3.39857e-170
1.80519e-174
4.79927e-176
1.40072e-180
3.84862e-182
8.31784e-192
3.82566e-197
5.89453e-201
2.3149e-202
6.46132e-204
1.15287e-205
7.91077e-215
1.79358e-217
5.67328e-219
1.33698e-220
2.49309e-222
1.30355e-231
3.45983e-241
5.89796e-251
8.64291e-260
1.57049e-261
1.02509e-264
2.08963e-266
2.90241e-269
6.13849e-271
1.38048e-273
2.95276e-275
4.40813e-278
9.56646e-280
8.33827e-283
1.84485e-284
8.61389e-288
1.94979e-289
4.39221e-293
1.02002e-294
9.04565e-299
2.15947e-300
4.77795e-305
1.17406e-306
2.67212e-313
6.74669e-315
0
)
;

boundaryField
{
    inlet
    {
        type            cyclic;
    }
    outlet
    {
        type            cyclic;
    }
    top
    {
        type            slip;
    }
    bottom
    {
        type            zeroGradient;
    }
    frontAndBackPlanes
    {
        type            empty;
    }
}


// ************************************************************************* //
