/*--------------------------------*- C++ -*----------------------------------*\
| =========                 |                                                 |
| \\      /  F ield         | OpenFOAM: The Open Source CFD Toolbox           |
|  \\    /   O peration     | Version:  2206                                  |
|   \\  /    A nd           | Website:  www.openfoam.com                      |
|    \\/     M anipulation  |                                                 |
\*---------------------------------------------------------------------------*/
FoamFile
{
    version     2.0;
    format      ascii;
    arch        "LSB;label=32;scalar=64";
    class       surfaceScalarField;
    location    "20";
    object      phi.b;
}
// * * * * * * * * * * * * * * * * * * * * * * * * * * * * * * * * * * * * * //

dimensions      [0 3 -1 0 0 0 0];

oriented        oriented;

internalField   nonuniform List<scalar> 
99
(
-3.56424e-15
-7.4969e-15
-1.12604e-14
-1.57017e-14
-1.97269e-14
-2.47776e-14
-2.90931e-14
-3.4844e-14
-3.95124e-14
-4.60798e-14
-5.12057e-14
-5.86906e-14
-6.44564e-14
-7.2926e-14
-7.96664e-14
-8.90774e-14
-9.74429e-14
-1.07471e-13
-1.18723e-13
-1.28369e-13
-1.45145e-13
-1.51739e-13
-1.79984e-13
-1.7607e-13
-2.3165e-13
-1.96726e-13
-3.23852e-13
-2.59544e-13
-4.36312e-13
-7.90676e-13
-2.03994e-12
-8.43571e-12
-8.70661e-12
-5.28315e-12
-3.13153e-12
-1.62694e-12
-9.16508e-13
-4.16047e-13
-2.44329e-13
-9.32355e-14
-5.84477e-14
-1.02528e-14
-1.17669e-14
5.65988e-14
3.2017e-18
7.41013e-18
5.13141e-18
9.14481e-18
4.65789e-18
8.02411e-18
3.53062e-18
2.52129e-18
-9.91955e-20
-4.25901e-18
1.42592e-18
-2.87853e-18
-3.52465e-18
8.61285e-19
-3.87313e-18
-2.55415e-18
1.66818e-18
-2.58223e-18
-3.34289e-18
1.90962e-18
1.38546e-18
-3.27497e-18
-1.76035e-18
3.93333e-18
4.76949e-18
-1.09896e-19
-3.68643e-18
-9.83176e-19
6.69451e-18
1.509e-17
2.14143e-17
2.52509e-17
2.71941e-17
2.82541e-17
2.89738e-17
2.96199e-17
3.02904e-17
3.09078e-17
3.14458e-17
3.18363e-17
3.22145e-17
3.26509e-17
3.31304e-17
3.36567e-17
3.38857e-17
3.40787e-17
3.40182e-17
3.39624e-17
3.40169e-17
3.43001e-17
3.46621e-17
3.4907e-17
3.51377e-17
3.54745e-17
3.59473e-17
)
;

boundaryField
{
    inlet
    {
        type            cyclic;
        value           nonuniform List<scalar> 
100
(
-7.37112e-11
-8.37966e-11
-8.81984e-11
-9.20082e-11
-9.57753e-11
-9.9797e-11
-1.03866e-10
-1.08215e-10
-1.12623e-10
-1.17329e-10
-1.22105e-10
-1.27198e-10
-1.3237e-10
-1.37881e-10
-1.43481e-10
-1.49447e-10
-1.55507e-10
-1.61969e-10
-1.68528e-10
-1.75534e-10
-1.82635e-10
-1.90237e-10
-1.97945e-10
-2.06198e-10
-2.14631e-10
-2.23556e-10
-2.33027e-10
-2.42529e-10
-2.57541e-10
-3.1861e-10
-1.32951e-09
-2.03634e-08
-6.76423e-08
-1.02934e-07
-1.28013e-07
-1.47932e-07
-1.64975e-07
-1.80297e-07
-1.94541e-07
-2.08095e-07
-2.2121e-07
-2.34057e-07
-2.46757e-07
-2.594e-07
-2.72055e-07
-2.84775e-07
-2.97606e-07
-3.10584e-07
-3.2374e-07
-3.37101e-07
-3.5069e-07
-3.64529e-07
-3.78636e-07
-3.9303e-07
-4.07725e-07
-4.22736e-07
-4.38074e-07
-4.53749e-07
-4.69771e-07
-4.86152e-07
-5.02901e-07
-5.20015e-07
-5.37489e-07
-5.55312e-07
-5.73482e-07
-5.91991e-07
-6.1082e-07
-6.29914e-07
-6.4917e-07
-6.68427e-07
-6.87325e-07
-7.04773e-07
-7.21429e-07
-7.38356e-07
-7.55718e-07
-7.73519e-07
-7.91756e-07
-8.1043e-07
-8.29548e-07
-8.49119e-07
-8.69151e-07
-8.89656e-07
-9.10643e-07
-9.32123e-07
-9.54108e-07
-9.7661e-07
-9.99639e-07
-1.02321e-06
-1.04733e-06
-1.07202e-06
-1.09729e-06
-1.12316e-06
-1.14963e-06
-1.17673e-06
-1.20446e-06
-1.23284e-06
-1.2619e-06
-1.29163e-06
-1.32207e-06
-1.35322e-06
)
;
    }
    outlet
    {
        type            cyclic;
        value           nonuniform List<scalar> 
100
(
7.37112e-11
8.37966e-11
8.81984e-11
9.20082e-11
9.57753e-11
9.9797e-11
1.03866e-10
1.08215e-10
1.12623e-10
1.17329e-10
1.22105e-10
1.27198e-10
1.3237e-10
1.37881e-10
1.43481e-10
1.49447e-10
1.55507e-10
1.61969e-10
1.68528e-10
1.75534e-10
1.82635e-10
1.90237e-10
1.97945e-10
2.06198e-10
2.14631e-10
2.23556e-10
2.33027e-10
2.42529e-10
2.57541e-10
3.1861e-10
1.32951e-09
2.03634e-08
6.76423e-08
1.02934e-07
1.28013e-07
1.47932e-07
1.64975e-07
1.80297e-07
1.94541e-07
2.08095e-07
2.2121e-07
2.34057e-07
2.46757e-07
2.594e-07
2.72055e-07
2.84775e-07
2.97606e-07
3.10584e-07
3.2374e-07
3.37101e-07
3.5069e-07
3.64529e-07
3.78636e-07
3.9303e-07
4.07725e-07
4.22736e-07
4.38074e-07
4.53749e-07
4.69771e-07
4.86152e-07
5.02901e-07
5.20015e-07
5.37489e-07
5.55312e-07
5.73482e-07
5.91991e-07
6.1082e-07
6.29914e-07
6.4917e-07
6.68427e-07
6.87325e-07
7.04773e-07
7.21429e-07
7.38356e-07
7.55718e-07
7.73519e-07
7.91756e-07
8.1043e-07
8.29548e-07
8.49119e-07
8.69151e-07
8.89656e-07
9.10643e-07
9.32123e-07
9.54108e-07
9.7661e-07
9.99639e-07
1.02321e-06
1.04733e-06
1.07202e-06
1.09729e-06
1.12316e-06
1.14963e-06
1.17673e-06
1.20446e-06
1.23284e-06
1.2619e-06
1.29163e-06
1.32207e-06
1.35322e-06
)
;
    }
    top
    {
        type            calculated;
        value           uniform 3.61246e-17;
    }
    bottom
    {
        type            fixedValue;
        value           uniform 0;
    }
    frontAndBackPlanes
    {
        type            empty;
        value           nonuniform List<scalar> 0();
    }
}


// ************************************************************************* //
