/*--------------------------------*- C++ -*----------------------------------*\
| =========                 |                                                 |
| \\      /  F ield         | OpenFOAM: The Open Source CFD Toolbox           |
|  \\    /   O peration     | Version:  2206                                  |
|   \\  /    A nd           | Website:  www.openfoam.com                      |
|    \\/     M anipulation  |                                                 |
\*---------------------------------------------------------------------------*/
FoamFile
{
    version     2.0;
    format      ascii;
    arch        "LSB;label=32;scalar=64";
    class       surfaceScalarField;
    location    "20";
    object      phi.a;
}
// * * * * * * * * * * * * * * * * * * * * * * * * * * * * * * * * * * * * * //

dimensions      [0 3 -1 0 0 0 0];

oriented        oriented;

internalField   nonuniform List<scalar> 
99
(
2.90459e-15
6.11587e-15
9.19435e-15
1.28269e-14
1.61177e-14
2.0249e-14
2.37848e-14
2.85e-14
3.23328e-14
3.77242e-14
4.19408e-14
4.8097e-14
5.28508e-14
5.98313e-14
6.54037e-14
7.31784e-14
8.01055e-14
8.84162e-14
9.77567e-14
1.05795e-13
1.19735e-13
1.2531e-13
1.48822e-13
1.45797e-13
1.92107e-13
1.63484e-13
2.69631e-13
2.16954e-13
3.66017e-13
6.69642e-13
2.4988e-12
2.53043e-11
8.25191e-11
1.42835e-10
2.05525e-10
2.46141e-10
3.09378e-10
3.15925e-10
4.01888e-10
3.49763e-10
4.63945e-10
2.02673e-10
5.07714e-10
-1.72998e-08
-3.95283e-08
-4.06002e-08
-4.03165e-08
-4.04688e-08
-4.04165e-08
-4.0456e-08
-4.04515e-08
-4.04653e-08
-4.04695e-08
-4.04769e-08
-4.04819e-08
-4.04873e-08
-4.04918e-08
-4.04961e-08
-4.05e-08
-4.05038e-08
-4.05074e-08
-4.05108e-08
-4.05141e-08
-4.05174e-08
-4.05207e-08
-4.05241e-08
-4.05277e-08
-4.05315e-08
-4.05351e-08
-4.05376e-08
-4.05383e-08
-4.05383e-08
-4.05383e-08
-4.05383e-08
-4.05383e-08
-4.05383e-08
-4.05383e-08
-4.05383e-08
-4.05383e-08
-4.05383e-08
-4.05383e-08
-4.05383e-08
-4.05383e-08
-4.05383e-08
-4.05383e-08
-4.05383e-08
-4.05383e-08
-4.05383e-08
-4.05383e-08
-4.05383e-08
-4.05383e-08
-4.05383e-08
-4.05383e-08
-4.05383e-08
-4.05383e-08
-4.05383e-08
-4.05383e-08
-4.05383e-08
-4.05383e-08
)
;

boundaryField
{
    inlet
    {
        type            cyclic;
        value           nonuniform List<scalar> 
100
(
-6.8233e-13
-2.10094e-12
-3.6079e-12
-5.20707e-12
-6.90248e-12
-8.69829e-12
-1.05988e-11
-1.26084e-11
-1.47317e-11
-1.69732e-11
-1.93379e-11
-2.18305e-11
-2.44562e-11
-2.72201e-11
-3.01274e-11
-3.31834e-11
-3.63937e-11
-3.97637e-11
-4.32992e-11
-4.70056e-11
-5.08889e-11
-5.49548e-11
-5.92092e-11
-6.36578e-11
-6.83066e-11
-7.31612e-11
-7.82275e-11
-8.35109e-11
-9.15131e-11
-1.34208e-10
-6.28982e-10
-9.80342e-09
-3.49777e-08
-7.26228e-08
-1.06607e-07
-1.32592e-07
-1.53493e-07
-1.71346e-07
-1.8728e-07
-2.02136e-07
-2.16252e-07
-2.3022e-07
-2.4445e-07
-2.64985e-07
-2.80853e-07
-2.92654e-07
-3.07225e-07
-3.18718e-07
-3.32243e-07
-3.44958e-07
-3.58518e-07
-3.72019e-07
-3.85986e-07
-4.00156e-07
-4.1469e-07
-4.2952e-07
-4.44696e-07
-4.60207e-07
-4.76072e-07
-4.92292e-07
-5.0887e-07
-5.258e-07
-5.43072e-07
-5.60677e-07
-5.78603e-07
-5.96823e-07
-6.15281e-07
-6.33881e-07
-6.52465e-07
-6.7072e-07
-6.87979e-07
-7.04607e-07
-7.21203e-07
-7.38155e-07
-7.55535e-07
-7.73343e-07
-7.91581e-07
-8.10252e-07
-8.29367e-07
-8.48932e-07
-8.68958e-07
-8.89457e-07
-9.10437e-07
-9.3191e-07
-9.53888e-07
-9.76382e-07
-9.99404e-07
-1.02297e-06
-1.04708e-06
-1.07177e-06
-1.09703e-06
-1.12288e-06
-1.14935e-06
-1.17644e-06
-1.20416e-06
-1.23254e-06
-1.26158e-06
-1.29131e-06
-1.32173e-06
-1.35286e-06
)
;
    }
    outlet
    {
        type            cyclic;
        value           nonuniform List<scalar> 
100
(
6.8233e-13
2.10094e-12
3.6079e-12
5.20707e-12
6.90248e-12
8.69829e-12
1.05988e-11
1.26084e-11
1.47317e-11
1.69732e-11
1.93379e-11
2.18305e-11
2.44562e-11
2.72201e-11
3.01274e-11
3.31834e-11
3.63937e-11
3.97637e-11
4.32992e-11
4.70056e-11
5.08889e-11
5.49548e-11
5.92092e-11
6.36578e-11
6.83066e-11
7.31612e-11
7.82275e-11
8.35109e-11
9.15131e-11
1.34208e-10
6.28982e-10
9.80342e-09
3.49777e-08
7.26228e-08
1.06607e-07
1.32592e-07
1.53493e-07
1.71346e-07
1.8728e-07
2.02136e-07
2.16252e-07
2.3022e-07
2.4445e-07
2.64985e-07
2.80853e-07
2.92654e-07
3.07225e-07
3.18718e-07
3.32243e-07
3.44958e-07
3.58518e-07
3.72019e-07
3.85986e-07
4.00156e-07
4.1469e-07
4.2952e-07
4.44696e-07
4.60207e-07
4.76072e-07
4.92292e-07
5.0887e-07
5.258e-07
5.43072e-07
5.60677e-07
5.78603e-07
5.96823e-07
6.15281e-07
6.33881e-07
6.52465e-07
6.7072e-07
6.87979e-07
7.04607e-07
7.21203e-07
7.38155e-07
7.55535e-07
7.73343e-07
7.91581e-07
8.10252e-07
8.29367e-07
8.48932e-07
8.68958e-07
8.89457e-07
9.10437e-07
9.3191e-07
9.53888e-07
9.76382e-07
9.99404e-07
1.02297e-06
1.04708e-06
1.07177e-06
1.09703e-06
1.12288e-06
1.14935e-06
1.17644e-06
1.20416e-06
1.23254e-06
1.26158e-06
1.29131e-06
1.32173e-06
1.35286e-06
)
;
    }
    top
    {
        type            calculated;
        value           uniform -4.05383e-08;
    }
    bottom
    {
        type            fixedValue;
        value           uniform 0;
    }
    frontAndBackPlanes
    {
        type            empty;
        value           nonuniform List<scalar> 0();
    }
}


// ************************************************************************* //
