/*--------------------------------*- C++ -*----------------------------------*\
| =========                 |                                                 |
| \\      /  F ield         | OpenFOAM: The Open Source CFD Toolbox           |
|  \\    /   O peration     | Version:  2206                                  |
|   \\  /    A nd           | Website:  www.openfoam.com                      |
|    \\/     M anipulation  |                                                 |
\*---------------------------------------------------------------------------*/
FoamFile
{
    version     2.0;
    format      ascii;
    arch        "LSB;label=32;scalar=64";
    class       volTensorField;
    location    "20";
    object      Taua;
}
// * * * * * * * * * * * * * * * * * * * * * * * * * * * * * * * * * * * * * //

dimensions      [1 -1 -2 0 0 0 0];

internalField   nonuniform List<tensor> 
100
(
(-0.0110228 0 0 1.0145 0.0220456 0 0 0 -0.0110228)
(0.0100172 5.86156e-19 0 1.00659 -0.0200345 0 0 0 0.0100172)
(-0.000376746 0 0 0.998369 0.000753492 0 0 0 -0.000376746)
(-0.000433851 0 0 0.989981 0.000867702 0 0 0 -0.000433851)
(-0.00037893 0 0 0.981445 0.000757859 0 0 0 -0.00037893)
(-0.000465425 0 0 0.972758 0.000930849 0 0 0 -0.000465425)
(-0.000388932 0 0 0.963915 0.000777864 0 0 0 -0.000388932)
(-0.00050758 0 0 0.954913 0.00101516 0 0 0 -0.00050758)
(-0.000403118 -4.98075e-19 0 0.945745 0.000806236 0 0 0 -0.000403118)
(-0.000554234 0 0 0.936407 0.00110847 0 0 0 -0.000554234)
(-0.000423492 0 0 0.926895 0.000846984 0 0 0 -0.000423492)
(-0.000604158 0 0 0.917203 0.00120832 0 0 0 -0.000604158)
(-0.000455772 0 0 0.907326 0.000911545 0 0 0 -0.000455772)
(-0.00065394 0 0 0.897259 0.00130788 0 0 0 -0.00065394)
(-0.000509936 0 0 0.886998 0.00101987 0 0 0 -0.000509936)
(-0.000695439 0 0 0.876537 0.00139088 0 0 0 -0.000695439)
(-0.000604512 0 0 0.86587 0.00120902 0 0 0 -0.000604512)
(-0.000711088 0 0 0.854994 0.00142218 0 0 0 -0.000711088)
(-0.000775054 0 0 0.843902 0.00155011 0 0 0 -0.000775054)
(-0.000662736 0 0 0.832589 0.00132547 0 0 0 -0.000662736)
(-0.00109513 0 0 0.82105 0.00219025 0 0 0 -0.00109513)
(-0.000458839 0 0 0.809281 0.000917678 0 0 0 -0.000458839)
(-0.00174235 0 0 0.797274 0.0034847 0 0 0 -0.00174235)
(0.000183389 0 0 0.785024 -0.000366779 0 0 0 0.000183389)
(-0.0031564 0 0 0.772527 0.00631279 0 0 0 -0.0031564)
(0.00203609 0 0 0.759777 -0.00407218 0 0 0 0.00203609)
(-0.00673049 0 0 0.746769 0.013461 0 0 0 -0.00673049)
(0.00783179 0 0 0.989657 -0.0156636 0 0 0 0.00783179)
(0.0129313 0 0 0.749139 -0.0258626 0 0 0 0.0129313)
(-0.05022 0 0 0.719098 0.10044 0 0 0 -0.05022)
(0.0012867 0 0 0.506236 -0.0025734 0 0 0 0.0012867)
(0.000488318 0 0 0.42013 -0.000976637 0 0 0 0.000488318)
(-0.000124716 0 0 0.119258 0.000249433 0 0 0 -0.000124716)
(-4.8922e-05 0 0 0.0343677 9.7844e-05 0 0 0 -4.8922e-05)
(5.21667e-06 0 0 0.0100367 -1.04333e-05 0 0 0 5.21667e-06)
(-9.80513e-06 0 0 0.00285918 1.96103e-05 0 0 0 -9.80513e-06)
(3.25996e-06 0 0 0.00094654 -6.51992e-06 0 0 0 3.25996e-06)
(-2.64744e-06 0 0 0.000306819 5.29489e-06 0 0 0 -2.64744e-06)
(1.25656e-06 0 0 0.000121784 -2.51311e-06 0 0 0 1.25656e-06)
(-6.78189e-07 0 0 3.97322e-05 1.35638e-06 0 0 0 -6.78189e-07)
(4.01676e-07 -1.10845e-21 0 1.87138e-05 -8.03352e-07 0 0 0 4.01676e-07)
(-9.54871e-08 0 0 5.11473e-06 1.90974e-07 0 0 0 -9.54871e-08)
(5.44551e-08 0 0 3.89105e-06 -1.0891e-07 0 0 0 5.44551e-08)
(2.40642e-07 0 0 3.45296e-07 -4.81283e-07 0 0 0 2.40642e-07)
(2.37604e-30 0 0 1.91643e-30 -4.75209e-30 0 0 0 2.37604e-30)
(3.58481e-59 0 0 1.52008e-58 -7.16961e-59 0 0 0 3.58481e-59)
(-3.04725e-83 0 0 1.28755e-81 6.0945e-83 0 0 0 -3.04725e-83)
(2.23001e-106 0 0 1.46077e-104 -4.46002e-106 0 0 0 2.23001e-106)
(-4.76639e-130 0 0 9.48668e-128 9.53278e-130 0 0 0 -4.76639e-130)
(3.73672e-153 0 0 9.09092e-151 -7.47344e-153 0 0 0 3.73672e-153)
(-2.14314e-177 0 0 4.55689e-174 4.28627e-177 0 0 0 -2.14314e-177)
(6.48024e-200 0 0 4.29355e-197 -1.29605e-199 0 0 0 6.48024e-200)
(3.00588e-222 0 0 6.38049e-219 -6.01177e-222 0 0 0 3.00588e-222)
(4.2643e-243 0 0 4.98727e-240 -8.5286e-243 0 0 0 4.2643e-243)
(2.28326e-264 0 0 3.82376e-261 -4.56653e-264 0 0 0 2.28326e-264)
(1.27806e-285 0 0 1.97595e-282 -2.55612e-285 0 0 0 1.27806e-285)
(3.97451e-307 0 0 7.04314e-304 -7.94901e-307 0 0 0 3.97451e-307)
(1.97943e-318 0 0 3.59186e-315 -3.95887e-318 0 0 0 1.97943e-318)
(1.28457e-321 0 0 2.47996e-318 -2.56914e-321 0 0 0 1.28457e-321)
(0 0 0 0 -0 0 0 0 0)
(0 0 0 0 -0 0 0 0 0)
(0 0 0 0 -0 0 0 0 0)
(0 0 0 0 -0 0 0 0 0)
(0 0 0 0 -0 0 0 0 0)
(0 0 0 0 -0 0 0 0 0)
(0 0 0 0 -0 0 0 0 0)
(0 0 0 0 -0 0 0 0 0)
(0 0 0 0 -0 0 0 0 0)
(0 0 0 0 -0 0 0 0 0)
(0 0 0 0 -0 0 0 0 0)
(0 0 0 0 -0 0 0 0 0)
(-0 0 0 0 0 0 0 0 -0)
(0 -0 0 -0 -0 0 0 0 0)
(0 0 0 -0 -0 0 0 0 0)
(0 0 0 0 -0 0 0 0 0)
(0 0 0 0 -0 0 0 0 0)
(0 0 0 0 -0 0 0 0 0)
(-0 0 0 0 0 0 0 0 -0)
(-0 0 0 0 0 0 0 0 -0)
(-0 0 0 0 0 0 0 0 -0)
(-0 0 0 0 0 0 0 0 -0)
(-0 0 0 0 0 0 0 0 -0)
(-0 0 0 0 0 0 0 0 -0)
(-0 0 0 0 0 0 0 0 -0)
(-0 0 0 0 0 0 0 0 -0)
(-0 0 0 0 0 0 0 0 -0)
(-0 -0 0 0 0 0 0 0 -0)
(-0 0 0 0 0 0 0 0 -0)
(-0 0 0 0 0 0 0 0 -0)
(-0 0 0 0 0 0 0 0 -0)
(-0 0 0 0 0 0 0 0 -0)
(-0 0 0 0 0 0 0 0 -0)
(-0 0 0 0 0 0 0 0 -0)
(-0 0 0 0 0 0 0 0 -0)
(-0 0 0 0 0 0 0 0 -0)
(-0 0 0 0 0 0 0 0 -0)
(-0 0 0 0 0 0 0 0 -0)
(-0 0 0 0 0 0 0 0 -0)
(-0 0 0 0 0 0 0 0 -0)
(-0 0 0 0 0 0 0 0 -0)
)
;

boundaryField
{
    inlet
    {
        type            cyclic;
    }
    outlet
    {
        type            cyclic;
    }
    top
    {
        type            extrapolatedCalculated;
        value           uniform (0 0 0 0 0 0 0 0 0);
    }
    bottom
    {
        type            extrapolatedCalculated;
        value           uniform (-0.0396961 0 0 1.01834 0.0793921 0 0 0 -0.0396961);
    }
    frontAndBackPlanes
    {
        type            empty;
    }
}


// ************************************************************************* //
