/*--------------------------------*- C++ -*----------------------------------*\
| =========                 |                                                 |
| \\      /  F ield         | OpenFOAM: The Open Source CFD Toolbox           |
|  \\    /   O peration     | Version:  2206                                  |
|   \\  /    A nd           | Website:  www.openfoam.com                      |
|    \\/     M anipulation  |                                                 |
\*---------------------------------------------------------------------------*/
FoamFile
{
    version     2.0;
    format      ascii;
    arch        "LSB;label=32;scalar=64";
    class       volTensorField;
    location    "20";
    object      Taub;
}
// * * * * * * * * * * * * * * * * * * * * * * * * * * * * * * * * * * * * * //

dimensions      [1 -1 -2 0 0 0 0];

internalField   nonuniform List<tensor> 
100
(
(-7.35438e-09 0 0 0.000716504 1.47088e-08 0 0 0 -7.35438e-09)
(1.69006e-08 -8.77032e-24 0 2.87611e-05 -3.38011e-08 0 0 0 1.69006e-08)
(-4.45047e-09 0 0 7.30318e-06 8.90093e-09 0 0 0 -4.45047e-09)
(6.3486e-09 0 0 4.60841e-06 -1.26972e-08 0 0 0 6.3486e-09)
(-3.71751e-10 0 0 4.10332e-06 7.43502e-10 0 0 0 -3.71751e-10)
(2.97162e-09 0 0 3.93806e-06 -5.94323e-09 0 0 0 2.97162e-09)
(1.93899e-09 0 0 3.85385e-06 -3.87798e-09 0 0 0 1.93899e-09)
(1.94423e-09 0 0 3.80966e-06 -3.88846e-09 0 0 0 1.94423e-09)
(2.33772e-09 7.54638e-24 0 3.76864e-06 -4.67545e-09 0 0 0 2.33772e-09)
(2.02275e-09 0 0 3.74103e-06 -4.04549e-09 0 0 0 2.02275e-09)
(2.54161e-09 0 0 3.70787e-06 -5.08321e-09 0 0 0 2.54161e-09)
(2.1456e-09 0 0 3.68242e-06 -4.29119e-09 0 0 0 2.1456e-09)
(2.78398e-09 0 0 3.65198e-06 -5.56796e-09 0 0 0 2.78398e-09)
(2.1072e-09 0 0 3.62624e-06 -4.2144e-09 0 0 0 2.1072e-09)
(4.1669e-09 0 0 3.59828e-06 -8.33379e-09 0 0 0 4.1669e-09)
(-1.16238e-09 0 0 3.5721e-06 2.32475e-09 0 0 0 -1.16238e-09)
(1.17309e-08 0 0 3.5474e-06 -2.34618e-08 0 0 0 1.17309e-08)
(-1.27714e-08 0 0 3.52171e-06 2.55429e-08 0 0 0 -1.27714e-08)
(2.94023e-08 0 0 3.50123e-06 -5.88046e-08 0 0 0 2.94023e-08)
(-3.55949e-08 0 0 3.47872e-06 7.11898e-08 0 0 0 -3.55949e-08)
(6.01706e-08 0 0 3.46274e-06 -1.20341e-07 0 0 0 6.01706e-08)
(-7.2754e-08 0 0 3.45057e-06 1.45508e-07 0 0 0 -7.2754e-08)
(1.15043e-07 0 0 3.43614e-06 -2.30086e-07 0 0 0 1.15043e-07)
(-1.65786e-07 0 0 3.45502e-06 3.31573e-07 0 0 0 -1.65786e-07)
(2.69708e-07 0 0 3.42549e-06 -5.39415e-07 0 0 0 2.69708e-07)
(-3.99242e-07 0 0 3.54985e-06 7.98485e-07 0 0 0 -3.99242e-07)
(6.29094e-07 0 0 3.45827e-06 -1.25819e-06 0 0 0 6.29094e-07)
(-9.21921e-07 0 0 5.29599e-06 1.84384e-06 0 0 0 -9.21921e-07)
(1.4216e-06 0 0 2.43168e-05 -2.8432e-06 0 0 0 1.4216e-06)
(-1.93591e-06 0 0 0.000381258 3.87182e-06 0 0 0 -1.93591e-06)
(1.11119e-06 0 0 0.00729954 -2.22238e-06 0 0 0 1.11119e-06)
(9.21333e-06 0 0 0.066707 -1.84267e-05 0 0 0 9.21333e-06)
(-2.49337e-05 0 0 0.359721 4.98673e-05 0 0 0 -2.49337e-05)
(1.43388e-05 0 0 0.490657 -2.86777e-05 0 0 0 1.43388e-05)
(-5.29541e-05 0 0 0.493512 0.000105908 0 0 0 -5.29541e-05)
(5.53579e-06 0 0 0.481181 -1.10716e-05 0 0 0 5.53579e-06)
(-2.61342e-05 0 0 0.46648 5.22684e-05 0 0 0 -2.61342e-05)
(8.78696e-07 0 0 0.451992 -1.75739e-06 0 0 0 8.78696e-07)
(-8.726e-06 0 0 0.437799 1.7452e-05 0 0 0 -8.726e-06)
(-7.36377e-09 0 0 0.423993 1.47275e-08 0 0 0 -7.36377e-09)
(-2.62351e-06 5.33131e-23 0 0.410453 5.24702e-06 0 0 0 -2.62351e-06)
(1.93742e-08 0 0 0.397056 -3.87483e-08 0 0 0 1.93742e-08)
(-7.66615e-07 0 0 0.383832 1.53323e-06 0 0 0 -7.66615e-07)
(-6.67544e-07 0 0 0.370658 1.33509e-06 0 0 0 -6.67544e-07)
(5.14712e-07 0 0 0.357505 -1.02942e-06 0 0 0 5.14712e-07)
(4.55194e-07 0 0 0.344414 -9.10387e-07 0 0 0 4.55194e-07)
(-2.61925e-07 0 0 0.331257 5.23851e-07 0 0 0 -2.61925e-07)
(1.41614e-07 0 0 0.318098 -2.83228e-07 0 0 0 1.41614e-07)
(-7.6492e-08 0 0 0.304895 1.52984e-07 0 0 0 -7.6492e-08)
(4.49473e-08 0 0 0.291635 -8.98946e-08 0 0 0 4.49473e-08)
(-2.93419e-08 -3.21977e-23 0 0.278318 5.86839e-08 0 0 0 -2.93419e-08)
(1.74015e-08 0 0 0.264909 -3.48029e-08 0 0 0 1.74015e-08)
(-8.67959e-09 0 0 0.251421 1.73592e-08 0 0 0 -8.67959e-09)
(3.42975e-09 0 0 0.237835 -6.8595e-09 0 0 0 3.42975e-09)
(-8.74401e-10 0 0 0.224144 1.7488e-09 0 0 0 -8.74401e-10)
(1.2562e-10 0 0 0.210339 -2.51239e-10 0 0 0 1.2562e-10)
(5.50809e-12 0 0 0.196416 -1.10162e-11 0 0 0 5.50809e-12)
(-1.87109e-11 0 0 0.18243 3.74217e-11 0 0 0 -1.87109e-11)
(2.07682e-11 0 0 0.168284 -4.15363e-11 0 0 0 2.07682e-11)
(-1.30289e-11 0 0 0.153952 2.60578e-11 0 0 0 -1.30289e-11)
(-2.43461e-11 0 0 0.139547 4.86922e-11 0 0 0 -2.43461e-11)
(2.35734e-11 0 0 0.125031 -4.71468e-11 0 0 0 2.35734e-11)
(8.09208e-13 0 0 0.110535 -1.61842e-12 0 0 0 8.09208e-13)
(-3.20753e-11 0 0 0.0959568 6.41506e-11 0 0 0 -3.20753e-11)
(3.44371e-13 -2.83032e-26 0 0.081398 -6.92631e-13 0 0 0 3.48261e-13)
(2.24078e-11 0 0 0.0668654 -4.48157e-11 0 0 0 2.24078e-11)
(-7.69432e-12 0 0 0.0526209 1.53886e-11 0 0 0 -7.69432e-12)
(-2.46615e-11 0 0 0.0387447 4.93229e-11 0 0 0 -2.46615e-11)
(-3.13418e-12 -2.3564e-26 0 0.0257063 6.26836e-12 0 0 0 -3.13418e-12)
(1.01729e-11 0 0 0.0135661 -2.03459e-11 0 0 0 1.01729e-11)
(3.53669e-12 0 0 0.00378154 -7.07339e-12 0 0 0 3.53669e-12)
(-1.51514e-12 0 0 0.000488004 3.03027e-12 0 0 0 -1.51514e-12)
(-5.87289e-12 8.05514e-27 0 1.23723e-05 1.17466e-11 0 0 0 -5.87372e-12)
(-1.14667e-11 0 0 -4.94034e-05 2.29334e-11 0 0 0 -1.14667e-11)
(-1.08593e-11 0 0 4.42203e-06 2.17185e-11 0 0 0 -1.08593e-11)
(-7.00107e-12 0 0 4.83979e-05 1.40021e-11 0 0 0 -7.00107e-12)
(-4.2403e-12 0 0 6.9519e-05 8.4806e-12 0 0 0 -4.2403e-12)
(-2.19433e-12 0 0 7.76572e-05 4.38866e-12 0 0 0 -2.19433e-12)
(-1.22527e-12 0 0 7.97719e-05 2.45054e-12 0 0 0 -1.22527e-12)
(-1.18205e-12 0 0 7.90813e-05 2.3641e-12 0 0 0 -1.18205e-12)
(-8.75113e-13 0 0 7.6941e-05 1.75023e-12 0 0 0 -8.75113e-13)
(-9.56754e-13 0 0 7.39715e-05 1.91351e-12 0 0 0 -9.56754e-13)
(-8.93821e-13 0 0 7.04975e-05 1.78764e-12 0 0 0 -8.93821e-13)
(-7.9041e-13 0 0 6.66209e-05 1.58034e-12 0 0 0 -7.89926e-13)
(-8.51543e-13 0 0 6.23407e-05 1.70309e-12 0 0 0 -8.51543e-13)
(-3.27513e-13 0 0 5.79127e-05 6.55025e-13 0 0 0 -3.27513e-13)
(-5.1823e-13 1.04841e-25 0 5.36873e-05 1.03736e-12 0 0 0 -5.1913e-13)
(-4.65838e-13 0 0 5.009e-05 9.31676e-13 0 0 0 -4.65838e-13)
(-3.32831e-13 0 0 4.70197e-05 6.65662e-13 0 0 0 -3.32831e-13)
(-5.79354e-13 0 0 4.38809e-05 1.15871e-12 0 0 0 -5.79354e-13)
(1.51106e-13 0 0 4.10049e-05 -3.02213e-13 0 0 0 1.51106e-13)
(-1.46103e-14 9.34169e-26 0 3.85557e-05 3.0023e-14 0 0 0 -1.54127e-14)
(-3.87471e-13 0 0 3.64773e-05 7.74942e-13 0 0 0 -3.87471e-13)
(1.39146e-13 0 0 3.48414e-05 -2.78292e-13 0 0 0 1.39146e-13)
(-2.59928e-13 0 0 3.34666e-05 5.19856e-13 0 0 0 -2.59928e-13)
(-7.72997e-13 0 0 3.18641e-05 1.54599e-12 0 0 0 -7.72997e-13)
(-2.93204e-13 0 0 3.03342e-05 5.86408e-13 0 0 0 -2.93204e-13)
(-6.6788e-14 0 0 2.8563e-05 1.33576e-13 0 0 0 -6.6788e-14)
(-3.83074e-13 0 0 2.63007e-05 7.66149e-13 0 0 0 -3.83074e-13)
(-2.6574e-13 0 0 1.2558e-05 5.3148e-13 0 0 0 -2.6574e-13)
)
;

boundaryField
{
    inlet
    {
        type            cyclic;
    }
    outlet
    {
        type            cyclic;
    }
    top
    {
        type            extrapolatedCalculated;
        value           uniform (0 0 0 0 0 0 0 0 0);
    }
    bottom
    {
        type            extrapolatedCalculated;
        value           uniform (-3.62309e-08 0 0 0.000415364 7.24618e-08 0 0 0 -3.62309e-08);
    }
    frontAndBackPlanes
    {
        type            empty;
    }
}


// ************************************************************************* //
