/*--------------------------------*- C++ -*----------------------------------*\
| =========                 |                                                 |
| \\      /  F ield         | OpenFOAM: The Open Source CFD Toolbox           |
|  \\    /   O peration     | Version:  2206                                  |
|   \\  /    A nd           | Website:  www.openfoam.com                      |
|    \\/     M anipulation  |                                                 |
\*---------------------------------------------------------------------------*/
FoamFile
{
    version     2.0;
    format      ascii;
    arch        "LSB;label=32;scalar=64";
    class       volScalarField;
    location    "20";
    object      Theta;
}
// * * * * * * * * * * * * * * * * * * * * * * * * * * * * * * * * * * * * * //

dimensions      [0 2 -2 0 0 0 0];

internalField   nonuniform List<scalar> 
100
(
2.80052e-07
2.01673e-07
1.22325e-07
6.5991e-08
3.36029e-08
1.67508e-08
8.36629e-09
4.15323e-09
2.0443e-09
9.8627e-10
4.6643e-10
2.14764e-10
9.63669e-11
4.197e-11
1.77419e-11
7.26567e-12
2.87786e-12
1.10229e-12
4.06945e-13
1.44879e-13
4.95339e-14
1.67593e-14
4.55664e-13
1.88162e-10
1.04627e-08
1.53133e-07
9.8037e-07
3.85718e-06
1.14097e-05
2.79944e-05
6.12802e-05
0.000150168
0.000332435
0.000548896
0.000652764
0.000680626
0.000684357
0.000682145
0.000676542
0.000673381
0.000665809
0.000670985
0.000681789
0.000830011
1.24452e-05
1.01287e-15
1e-15
1.00546e-15
1.00162e-15
1.00293e-15
1.00196e-15
1.00207e-15
1.00167e-15
1.0016e-15
1.00137e-15
1.00129e-15
1.00113e-15
1.00105e-15
1.00092e-15
1.00086e-15
1.00075e-15
1.00069e-15
1.00058e-15
1.00053e-15
1.00043e-15
1.00038e-15
1.00028e-15
1.00021e-15
1.00013e-15
1.00005e-15
1.00002e-15
1.00001e-15
1.00001e-15
1.00001e-15
1.00001e-15
1.00001e-15
1.00001e-15
1.00001e-15
1.00001e-15
1.00001e-15
1.00001e-15
1.00001e-15
1.00001e-15
1.00001e-15
1.00001e-15
1.00001e-15
1.00001e-15
1.00001e-15
1.00001e-15
1.00001e-15
1.00001e-15
1.00001e-15
1.00001e-15
1.00001e-15
1.00001e-15
1.00001e-15
1.00001e-15
1.00001e-15
1.00001e-15
1.00001e-15
)
;

boundaryField
{
    inlet
    {
        type            cyclic;
    }
    outlet
    {
        type            cyclic;
    }
    top
    {
        type            zeroGradient;
    }
    bottom
    {
        type            zeroGradient;
    }
    frontAndBackPlanes
    {
        type            empty;
    }
}


// ************************************************************************* //
