/*--------------------------------*- C++ -*----------------------------------*\
| =========                 |                                                 |
| \\      /  F ield         | OpenFOAM: The Open Source CFD Toolbox           |
|  \\    /   O peration     | Version:  2206                                  |
|   \\  /    A nd           | Website:  www.openfoam.com                      |
|    \\/     M anipulation  |                                                 |
\*---------------------------------------------------------------------------*/
FoamFile
{
    version     2.0;
    format      ascii;
    arch        "LSB;label=32;scalar=64";
    class       volVectorField;
    location    "20";
    object      U.a;
}
// * * * * * * * * * * * * * * * * * * * * * * * * * * * * * * * * * * * * * //

dimensions      [0 1 -1 0 0 0 0];

internalField   nonuniform List<vector> 
100
(
(1.85326e-06 2.16728e-07 0)
(5.57513e-06 2.1729e-08 0)
(9.35395e-06 -5.23094e-09 0)
(1.31896e-05 3.10843e-08 0)
(1.70822e-05 4.19371e-09 0)
(2.10316e-05 4.09063e-08 0)
(2.50376e-05 1.48822e-08 0)
(2.91002e-05 5.13996e-08 0)
(3.3219e-05 2.72217e-08 0)
(3.73937e-05 6.26976e-08 0)
(4.16238e-05 4.14851e-08 0)
(4.59088e-05 7.50048e-08 0)
(5.02482e-05 5.79381e-08 0)
(5.46411e-05 8.87196e-08 0)
(5.90868e-05 7.6765e-08 0)
(6.35842e-05 1.04605e-07 0)
(6.81323e-05 9.78918e-08 0)
(7.27299e-05 1.24143e-07 0)
(7.73756e-05 1.20607e-07 0)
(8.2068e-05 1.50256e-07 0)
(8.68053e-05 1.42691e-07 0)
(9.15857e-05 1.88965e-07 0)
(9.64073e-05 1.58125e-07 0)
(0.000101268 2.53912e-07 0)
(0.000106165 1.48953e-07 0)
(0.000111096 3.78263e-07 0)
(0.000116058 6.30867e-08 0)
(0.000121048 6.5793e-07 0)
(0.000129598 -2.75144e-07 0)
(0.000185691 -2.67805e-06 0)
(0.000850258 0.000151045 0)
(0.0129476 -0.000103725 0)
(0.0451338 1.63476e-06 0)
(0.0915551 0.000142787 0)
(0.131308 0.000370984 0)
(0.159561 2.99187e-05 0)
(0.180466 0.000891585 0)
(0.196824 -0.000380457 0)
(0.210183 0.00170072 0)
(0.221639 -0.00120727 0)
(0.231666 0.00288306 0)
(0.24096 -0.00256281 0)
(0.249971 0.00404867 0)
(0.26474 -0.00372572 0)
(0.274143 -0.0470319 0)
(0.279095 -0.0569212 0)
(0.286254 -0.0554505 0)
(0.290136 -0.05616 0)
(0.295495 -0.0558612 0)
(0.299751 -0.0560202 0)
(0.304371 -0.0559682 0)
(0.308572 -0.0560088 0)
(0.312797 -0.0560058 0)
(0.316824 -0.0560207 0)
(0.320783 -0.0560262 0)
(0.324616 -0.0560347 0)
(0.32836 -0.0560408 0)
(0.332 -0.0560472 0)
(0.33555 -0.0560527 0)
(0.339005 -0.0560581 0)
(0.342365 -0.0560631 0)
(0.345622 -0.056068 0)
(0.348769 -0.0560727 0)
(0.351797 -0.0560772 0)
(0.354698 -0.0560817 0)
(0.357456 -0.0560863 0)
(0.360039 -0.0560912 0)
(0.362396 -0.0560964 0)
(0.364445 -0.0561016 0)
(0.366028 -0.0561063 0)
(0.366815 -0.0561084 0)
(0.367044 -0.0561084 0)
(0.367052 -0.0561084 0)
(0.367043 -0.0561084 0)
(0.367048 -0.0561084 0)
(0.367062 -0.0561084 0)
(0.36708 -0.0561084 0)
(0.367101 -0.0561084 0)
(0.367122 -0.0561084 0)
(0.367144 -0.0561084 0)
(0.367165 -0.0561084 0)
(0.367186 -0.0561084 0)
(0.367206 -0.0561084 0)
(0.367226 -0.0561084 0)
(0.367245 -0.0561084 0)
(0.367263 -0.0561084 0)
(0.36728 -0.0561084 0)
(0.367296 -0.0561084 0)
(0.367312 -0.0561084 0)
(0.367327 -0.0561084 0)
(0.367341 -0.0561084 0)
(0.367355 -0.0561084 0)
(0.367369 -0.0561084 0)
(0.367382 -0.0561084 0)
(0.367395 -0.0561084 0)
(0.367407 -0.0561084 0)
(0.367419 -0.0561084 0)
(0.367431 -0.0561084 0)
(0.367441 -0.0561084 0)
(0.367448 -0.0561084 0)
)
;

boundaryField
{
    inlet
    {
        type            cyclic;
    }
    outlet
    {
        type            cyclic;
    }
    top
    {
        type            zeroGradient;
    }
    bottom
    {
        type            fixedValue;
        value           uniform (0 0 0);
    }
    frontAndBackPlanes
    {
        type            empty;
    }
}


// ************************************************************************* //
