/*--------------------------------*- C++ -*----------------------------------*\
| =========                 |                                                 |
| \\      /  F ield         | OpenFOAM: The Open Source CFD Toolbox           |
|  \\    /   O peration     | Version:  2206                                  |
|   \\  /    A nd           | Website:  www.openfoam.com                      |
|    \\/     M anipulation  |                                                 |
\*---------------------------------------------------------------------------*/
FoamFile
{
    version     2.0;
    format      ascii;
    arch        "LSB;label=32;scalar=64";
    class       volVectorField;
    location    "20";
    object      U.b;
}
// * * * * * * * * * * * * * * * * * * * * * * * * * * * * * * * * * * * * * //

dimensions      [0 1 -1 0 0 0 0];

internalField   nonuniform List<vector> 
100
(
(0.000200206 5.23899e-08 0)
(0.000222366 -4.04655e-08 0)
(0.000228666 3.48456e-09 0)
(0.000233059 -2.16796e-08 0)
(0.000237024 -3.08932e-08 0)
(0.000241299 -1.9198e-08 0)
(0.000245363 -5.02729e-08 0)
(0.00024976 -3.13828e-08 0)
(0.000253959 -6.40364e-08 0)
(0.000258488 -4.70407e-08 0)
(0.000262825 -7.89918e-08 0)
(0.000267492 -6.50144e-08 0)
(0.00027197 -9.54967e-08 0)
(0.00027678 -8.57788e-08 0)
(0.000281399 -1.1236e-07 0)
(0.000286361 -1.18817e-07 0)
(0.000291123 -1.02602e-07 0)
(0.00029625 -2.18415e-07 0)
(0.000301159 1.06193e-08 0)
(0.000306467 -4.84106e-07 0)
(0.000311534 3.4459e-07 0)
(0.000317043 -1.06112e-06 0)
(0.000322304 1.06711e-06 0)
(0.000328023 -2.22655e-06 0)
(0.000333588 2.78827e-06 0)
(0.000339472 -5.07961e-06 0)
(0.000345719 7.11332e-06 0)
(0.000351543 -1.20346e-05 0)
(0.00036472 1.75586e-05 0)
(0.000440831 -2.84451e-05 0)
(0.00179723 4.04898e-05 0)
(0.0268944 -4.21626e-05 0)
(0.0872829 6.76914e-06 0)
(0.129768 -2.16268e-05 0)
(0.157675 1.17828e-06 0)
(0.178021 -6.41941e-06 0)
(0.193965 8.80271e-08 0)
(0.207107 -1.62088e-06 0)
(0.218331 -1.56651e-08 0)
(0.228173 -3.83207e-07 0)
(0.236977 -6.03286e-09 0)
(0.244976 -6.59129e-08 0)
(0.252331 -6.89887e-09 0)
(0.259161 1.87295e-08 0)
(0.265555 6.48149e-08 0)
(0.271581 -3.66498e-08 0)
(0.277292 2.01021e-08 0)
(0.282732 -1.12156e-08 0)
(0.287933 6.45702e-09 0)
(0.292923 -3.86891e-09 0)
(0.297726 2.11792e-09 0)
(0.302359 -9.89642e-10 0)
(0.30684 3.73341e-10 0)
(0.311182 -9.7023e-11 0)
(0.315396 9.87036e-12 0)
(0.319489 -1.1594e-12 0)
(0.32347 -4.50854e-12 0)
(0.327341 -1.74904e-12 0)
(0.331109 -2.195e-12 0)
(0.334777 -4.52436e-12 0)
(0.338349 -2.80079e-13 0)
(0.34182 -8.94012e-13 0)
(0.345183 -4.17759e-12 0)
(0.348431 -9.63673e-13 0)
(0.351559 2.21668e-12 0)
(0.354562 -1.11786e-12 0)
(0.357429 -3.67726e-12 0)
(0.360127 1.4132e-12 0)
(0.362604 6.20679e-12 0)
(0.364777 3.02227e-12 0)
(0.366467 -2.5233e-12 0)
(0.367131 -3.56302e-12 0)
(0.367167 4.171e-12 0)
(0.367143 1.51338e-11 0)
(0.367137 2.54332e-11 0)
(0.367145 3.20862e-11 0)
(0.367162 3.61313e-11 0)
(0.367181 3.86492e-11 0)
(0.367203 3.95874e-11 0)
(0.367224 4.06336e-11 0)
(0.367246 4.15428e-11 0)
(0.367268 4.21123e-11 0)
(0.367289 4.32081e-11 0)
(0.36731 4.36922e-11 0)
(0.367329 4.46506e-11 0)
(0.367348 4.52752e-11 0)
(0.367366 4.52682e-11 0)
(0.367383 4.63004e-11 0)
(0.3674 4.6185e-11 0)
(0.367415 4.69913e-11 0)
(0.36743 4.7393e-11 0)
(0.367445 4.66545e-11 0)
(0.367458 4.74439e-11 0)
(0.367472 4.75149e-11 0)
(0.367485 4.71192e-11 0)
(0.367498 4.81422e-11 0)
(0.367511 4.89782e-11 0)
(0.367523 4.88531e-11 0)
(0.367535 4.91516e-11 0)
(0.367546 4.98462e-11 0)
)
;

boundaryField
{
    inlet
    {
        type            cyclic;
    }
    outlet
    {
        type            cyclic;
    }
    top
    {
        type            zeroGradient;
    }
    bottom
    {
        type            fixedValue;
        value           uniform (0 0 0);
    }
    frontAndBackPlanes
    {
        type            empty;
    }
}


// ************************************************************************* //
