/*--------------------------------*- C++ -*----------------------------------*\
| =========                 |                                                 |
| \\      /  F ield         | OpenFOAM: The Open Source CFD Toolbox           |
|  \\    /   O peration     | Version:  v2006                                 |
|   \\  /    A nd           | Website:  www.openfoam.com                      |
|    \\/     M anipulation  |                                                 |
\*---------------------------------------------------------------------------*/
FoamFile
{
    version     2.0;
    format      ascii;
    class       volScalarField;
    location    "20";
    object      p;
}
// * * * * * * * * * * * * * * * * * * * * * * * * * * * * * * * * * * * * * //

dimensions      [1 -1 -2 0 0 0 0];


internalField   nonuniform List<scalar> 
120
(
23.7097
19.0489
14.1753
9.26751
4.3621
-0.54296
-5.44796
-10.353
-15.258
-20.163
-25.068
-29.973
-34.878
-39.783
-44.688
-49.593
-54.498
-59.403
-64.308
-69.213
-74.118
-79.023
-83.928
-88.833
-93.738
-98.643
-103.548
-108.453
-113.358
-118.263
-123.168
-128.073
-132.978
-137.883
-142.788
-147.693
-152.598
-157.503
-162.408
-167.313
-172.218
-177.123
-182.028
-186.933
-191.838
-196.743
-201.648
-206.553
-211.458
-216.363
-221.268
-226.173
-231.078
-235.983
-240.888
-245.793
-250.698
-255.603
-260.508
-265.413
-270.318
-275.223
-280.128
-285.033
-289.938
-294.843
-299.748
-304.653
-309.558
-314.463
-319.368
-324.273
-329.178
-334.083
-338.988
-343.893
-348.798
-353.703
-358.608
-363.513
-368.418
-373.323
-378.228
-383.133
-388.038
-392.943
-397.848
-402.753
-407.658
-412.563
-417.468
-422.373
-427.278
-432.183
-437.088
-441.993
-446.898
-451.803
-456.708
-461.613
-466.518
-471.423
-476.328
-481.233
-486.138
-491.044
-495.963
-500.866
-505.578
-510.244
-514.903
-519.562
-524.222
-528.882
-533.541
-538.201
-542.861
-547.521
-552.18
-556.84
)
;

boundaryField
{
    inlet
    {
        type            cyclic;
    }
    outlet
    {
        type            cyclic;
    }
    top
    {
        type            calculated;
        value           uniform -559.17;
    }
    bottom
    {
        type            calculated;
        value           uniform 26.0396;
    }
    frontAndBackPlanes
    {
        type            empty;
    }
}


// ************************************************************************* //
