/*--------------------------------*- C++ -*----------------------------------*\
| =========                 |                                                 |
| \\      /  F ield         | OpenFOAM: The Open Source CFD Toolbox           |
|  \\    /   O peration     | Version:  v2006                                 |
|   \\  /    A nd           | Website:  www.openfoam.com                      |
|    \\/     M anipulation  |                                                 |
\*---------------------------------------------------------------------------*/
FoamFile
{
    version     2.0;
    format      ascii;
    class       volScalarField;
    location    "20";
    object      p_rbgh;
}
// * * * * * * * * * * * * * * * * * * * * * * * * * * * * * * * * * * * * * //

dimensions      [1 -1 -2 0 0 0 0];


internalField   nonuniform List<scalar> 
120
(
26.0396
26.0385
25.8247
25.5766
25.331
25.0857
24.8404
24.5952
24.3499
24.1047
23.8594
23.6142
23.3689
23.1237
22.8784
22.6332
22.3879
22.1427
21.8974
21.6522
21.4069
21.1617
20.9164
20.6712
20.4259
20.1807
19.9354
19.6902
19.4449
19.1997
18.9544
18.7092
18.4639
18.2187
17.9734
17.7282
17.4829
17.2377
16.9924
16.7472
16.5019
16.2567
16.0114
15.7662
15.5209
15.2757
15.0304
14.7852
14.5399
14.2947
14.0494
13.8042
13.5589
13.3137
13.0684
12.8232
12.5779
12.3327
12.0874
11.8422
11.5969
11.3517
11.1064
10.8612
10.6159
10.3707
10.1254
9.88017
9.63492
9.38967
9.14442
8.89917
8.65392
8.40867
8.16342
7.91817
7.67292
7.42767
7.18242
6.93717
6.69192
6.44667
6.20142
5.95617
5.71092
5.46567
5.22042
4.97517
4.72992
4.48467
4.23942
3.99417
3.74892
3.50367
3.25842
3.01317
2.76792
2.52267
2.27742
2.03217
1.78692
1.54166
1.29641
1.05131
0.806116
0.559158
0.30069
0.0571699
0.00488342
-0.00173122
-0.000444383
8.36319e-06
4.166e-05
4.09955e-06
-1.8518e-06
5.25283e-08
2.83603e-07
4.20796e-08
-1.27689e-08
5.15974e-09
)
;

boundaryField
{
    inlet
    {
        type            cyclic;
    }
    outlet
    {
        type            cyclic;
    }
    top
    {
        type            fixedValue;
        value           uniform 0;
    }
    bottom
    {
        type            fixedFluxPressure;
        gradient        uniform 0;
        value           uniform 26.0396;
    }
    frontAndBackPlanes
    {
        type            empty;
    }
}


// ************************************************************************* //
