/*--------------------------------*- C++ -*----------------------------------*\
| =========                 |                                                 |
| \\      /  F ield         | OpenFOAM: The Open Source CFD Toolbox           |
|  \\    /   O peration     | Version:  v2006                                 |
|   \\  /    A nd           | Website:  www.openfoam.com                      |
|    \\/     M anipulation  |                                                 |
\*---------------------------------------------------------------------------*/
FoamFile
{
    version     2.0;
    format      ascii;
    class       surfaceScalarField;
    location    "20";
    object      phia;
}
// * * * * * * * * * * * * * * * * * * * * * * * * * * * * * * * * * * * * * //

dimensions      [0 3 -1 0 0 0 0];
oriented        oriented;


internalField   nonuniform List<scalar> 
119
(
-1.23254e-14
-1.54393e-12
-2.20079e-12
-2.30413e-12
-2.3208e-12
-2.32318e-12
-2.32331e-12
-2.32331e-12
-2.32331e-12
-2.32331e-12
-2.32331e-12
-2.32331e-12
-2.32331e-12
-2.32331e-12
-2.32331e-12
-2.32331e-12
-2.32331e-12
-2.32331e-12
-2.32331e-12
-2.32331e-12
-2.32331e-12
-2.32331e-12
-2.32331e-12
-2.32331e-12
-2.32331e-12
-2.32331e-12
-2.32331e-12
-2.32331e-12
-2.32331e-12
-2.32331e-12
-2.32331e-12
-2.32331e-12
-2.32331e-12
-2.32331e-12
-2.32331e-12
-2.32331e-12
-2.32331e-12
-2.32331e-12
-2.32331e-12
-2.32331e-12
-2.32331e-12
-2.32331e-12
-2.32331e-12
-2.32331e-12
-2.32331e-12
-2.32331e-12
-2.32331e-12
-2.32331e-12
-2.32331e-12
-2.32331e-12
-2.32331e-12
-2.32331e-12
-2.32331e-12
-2.32331e-12
-2.32331e-12
-2.32331e-12
-2.32331e-12
-2.32331e-12
-2.32331e-12
-2.32331e-12
-2.32331e-12
-2.32331e-12
-2.32331e-12
-2.32331e-12
-2.32331e-12
-2.32331e-12
-2.32331e-12
-2.32331e-12
-2.32331e-12
-2.32331e-12
-2.32331e-12
-2.32331e-12
-2.32331e-12
-2.32331e-12
-2.32331e-12
-2.32331e-12
-2.32331e-12
-2.32331e-12
-2.32331e-12
-2.32331e-12
-2.32331e-12
-2.32331e-12
-2.32331e-12
-2.32331e-12
-2.32331e-12
-2.3233e-12
-2.3233e-12
-2.3233e-12
-2.3233e-12
-2.3233e-12
-2.3233e-12
-2.3233e-12
-2.3233e-12
-2.3233e-12
-2.32329e-12
-2.32329e-12
-2.32329e-12
-2.32329e-12
-2.32329e-12
-2.3233e-12
-2.32323e-12
-2.32289e-12
-2.32448e-12
-2.3299e-12
-2.34902e-12
-2.1459e-12
-3.70604e-12
-3.36373e-11
-7.23044e-11
-8.37702e-11
-8.23133e-11
-8.22722e-11
-8.22686e-11
-8.22747e-11
-8.22763e-11
-8.22764e-11
-8.22764e-11
-8.22574e-11
-8.21699e-11
)
;

boundaryField
{
    inlet
    {
        type            cyclic;
        value           nonuniform List<scalar> 
120
(
-1.27208e-27
-2.43857e-27
-2.32077e-25
-6.29897e-26
-3.35742e-26
-1.18194e-25
-4.5449e-25
3.89104e-28
4.57692e-25
1.39181e-25
1.42139e-25
4.80317e-25
1.20288e-25
2.2707e-26
3.37013e-27
4.09199e-28
4.29635e-29
1.84031e-29
1.67475e-28
1.63475e-27
1.34581e-26
9.05763e-26
4.7871e-25
1.90123e-24
4.34018e-25
-1.50909e-25
-9.55626e-25
-3.42253e-25
-6.1535e-25
-2.39422e-24
-2.38815e-24
-5.6848e-25
-8.91828e-26
8.75416e-26
5.56289e-25
2.30702e-24
1.97311e-24
-1.02777e-24
6.50726e-25
-3.02299e-24
5.49696e-25
-1.58758e-24
-3.50723e-25
2.16599e-25
9.26581e-25
-3.40167e-24
-1.16676e-24
-1.11679e-24
3.31115e-24
8.65459e-25
1.69168e-25
3.87299e-26
9.37313e-26
4.79515e-25
1.90474e-24
4.52597e-25
-9.06742e-26
-9.45649e-25
-3.81436e-24
-9.59139e-25
-1.84224e-25
-5.05865e-26
-1.57659e-25
-7.78076e-25
-2.85697e-24
2.85658e-24
7.74465e-25
1.27457e-25
-1.57661e-25
-9.56122e-25
-3.81566e-24
-9.59034e-25
-1.81315e-25
-2.69303e-26
-3.27048e-27
-3.34449e-28
-2.94641e-29
-2.58149e-30
-4.69669e-30
-5.89008e-29
-6.68916e-28
-6.54119e-27
-5.38623e-26
-3.62643e-25
-1.91814e-24
-7.63189e-24
-1.91812e-24
-3.62641e-25
-5.38617e-26
-6.54115e-27
-6.6891e-28
-5.88919e-29
-4.54128e-30
-3.10925e-31
-1.9111e-32
-1.06419e-33
-5.40964e-35
-2.52671e-36
-1.09039e-37
-4.36863e-39
-1.63184e-40
-5.70411e-42
-1.87155e-43
-5.7861e-45
-1.69751e-46
-4.82654e-48
-1.16961e-49
-8.39013e-51
-4.63631e-51
-2.13249e-51
-9.56556e-52
-4.25783e-52
-1.88397e-52
-8.26758e-53
-3.60373e-53
-1.55732e-53
-6.67059e-54
-2.80745e-54
-1.10781e-54
-2.75419e-55
)
;
    }
    outlet
    {
        type            cyclic;
        value           nonuniform List<scalar> 
120
(
1.27208e-27
2.43857e-27
2.32077e-25
6.29897e-26
3.35742e-26
1.18194e-25
4.5449e-25
-3.89104e-28
-4.57692e-25
-1.39181e-25
-1.42139e-25
-4.80317e-25
-1.20288e-25
-2.2707e-26
-3.37013e-27
-4.09199e-28
-4.29635e-29
-1.84031e-29
-1.67475e-28
-1.63475e-27
-1.34581e-26
-9.05763e-26
-4.7871e-25
-1.90123e-24
-4.34018e-25
1.50909e-25
9.55626e-25
3.42253e-25
6.1535e-25
2.39422e-24
2.38815e-24
5.6848e-25
8.91828e-26
-8.75416e-26
-5.56289e-25
-2.30702e-24
-1.97311e-24
1.02777e-24
-6.50726e-25
3.02299e-24
-5.49696e-25
1.58758e-24
3.50723e-25
-2.16599e-25
-9.26581e-25
3.40167e-24
1.16676e-24
1.11679e-24
-3.31115e-24
-8.65459e-25
-1.69168e-25
-3.87299e-26
-9.37313e-26
-4.79515e-25
-1.90474e-24
-4.52597e-25
9.06742e-26
9.45649e-25
3.81436e-24
9.59139e-25
1.84224e-25
5.05865e-26
1.57659e-25
7.78076e-25
2.85697e-24
-2.85658e-24
-7.74465e-25
-1.27457e-25
1.57661e-25
9.56122e-25
3.81566e-24
9.59034e-25
1.81315e-25
2.69303e-26
3.27048e-27
3.34449e-28
2.94641e-29
2.58149e-30
4.69669e-30
5.89008e-29
6.68916e-28
6.54119e-27
5.38623e-26
3.62643e-25
1.91814e-24
7.63189e-24
1.91812e-24
3.62641e-25
5.38617e-26
6.54115e-27
6.6891e-28
5.88919e-29
4.54128e-30
3.10925e-31
1.9111e-32
1.06419e-33
5.40964e-35
2.52671e-36
1.09039e-37
4.36863e-39
1.63184e-40
5.70411e-42
1.87155e-43
5.7861e-45
1.69751e-46
4.82654e-48
1.16961e-49
8.39013e-51
4.63631e-51
2.13249e-51
9.56556e-52
4.25783e-52
1.88397e-52
8.26758e-53
3.60373e-53
1.55732e-53
6.67059e-54
2.80745e-54
1.10781e-54
2.75419e-55
)
;
    }
    top
    {
        type            fixedValue;
        value           uniform 0;
    }
    bottom
    {
        type            fixedValue;
        value           uniform 0;
    }
    frontAndBackPlanes
    {
        type            empty;
        value           nonuniform List<scalar> 0();
    }
}


// ************************************************************************* //
