/*--------------------------------*- C++ -*----------------------------------*\
| =========                 |                                                 |
| \\      /  F ield         | OpenFOAM: The Open Source CFD Toolbox           |
|  \\    /   O peration     | Version:  v2006                                 |
|   \\  /    A nd           | Website:  www.openfoam.com                      |
|    \\/     M anipulation  |                                                 |
\*---------------------------------------------------------------------------*/
FoamFile
{
    version     2.0;
    format      ascii;
    class       surfaceScalarField;
    location    "20";
    object      phib;
}
// * * * * * * * * * * * * * * * * * * * * * * * * * * * * * * * * * * * * * //

dimensions      [0 3 -1 0 0 0 0];
oriented        oriented;


internalField   nonuniform List<scalar> 
119
(
1.56416e-14
1.68734e-12
2.24655e-12
2.31146e-12
2.32175e-12
2.32325e-12
2.32331e-12
2.32331e-12
2.32331e-12
2.32331e-12
2.32331e-12
2.32331e-12
2.32331e-12
2.32331e-12
2.32331e-12
2.32331e-12
2.32331e-12
2.32331e-12
2.32331e-12
2.32331e-12
2.32331e-12
2.32331e-12
2.32331e-12
2.32331e-12
2.32331e-12
2.32331e-12
2.32331e-12
2.32331e-12
2.32331e-12
2.32331e-12
2.32331e-12
2.32331e-12
2.32331e-12
2.32331e-12
2.32331e-12
2.32331e-12
2.32331e-12
2.32331e-12
2.32331e-12
2.32331e-12
2.32331e-12
2.32331e-12
2.32331e-12
2.32331e-12
2.32331e-12
2.32331e-12
2.32331e-12
2.32331e-12
2.32331e-12
2.32331e-12
2.32331e-12
2.32331e-12
2.32331e-12
2.32331e-12
2.32331e-12
2.32331e-12
2.32331e-12
2.32331e-12
2.32331e-12
2.32331e-12
2.32331e-12
2.32331e-12
2.32331e-12
2.32331e-12
2.32331e-12
2.32331e-12
2.32331e-12
2.32331e-12
2.32331e-12
2.32331e-12
2.32331e-12
2.32331e-12
2.32331e-12
2.32331e-12
2.32331e-12
2.32331e-12
2.32331e-12
2.32331e-12
2.32331e-12
2.32332e-12
2.32332e-12
2.32332e-12
2.32332e-12
2.32332e-12
2.32332e-12
2.32332e-12
2.32332e-12
2.32332e-12
2.32332e-12
2.32332e-12
2.32333e-12
2.32333e-12
2.32333e-12
2.32333e-12
2.32333e-12
2.32333e-12
2.32333e-12
2.32333e-12
2.32334e-12
2.32334e-12
2.32328e-12
2.32312e-12
2.3246e-12
2.32705e-12
2.329e-12
2.17323e-12
3.00632e-12
8.61485e-12
8.12171e-13
9.21016e-15
2.52722e-15
1.23582e-15
6.29379e-16
3.26819e-16
1.70652e-16
9.6061e-17
6.13296e-17
4.95601e-17
4.31071e-17
)
;

boundaryField
{
    inlet
    {
        type            cyclic;
        value           nonuniform List<scalar> 
120
(
-1.28408e-27
-4.06017e-27
-2.29648e-25
-6.29948e-26
-3.35786e-26
-1.18203e-25
-4.49038e-25
3.89087e-28
4.52241e-25
1.39193e-25
1.42152e-25
4.74869e-25
1.20298e-25
2.27101e-26
3.37077e-27
4.09299e-28
4.29767e-29
1.84096e-29
1.67525e-28
1.63515e-27
1.34606e-26
9.05884e-26
4.78747e-25
1.87944e-24
4.34049e-25
-1.50916e-25
-9.44729e-25
-3.42286e-25
-6.15405e-25
-2.37246e-24
-2.36639e-24
-5.6853e-25
-8.91947e-26
8.75529e-26
5.56336e-25
2.28525e-24
1.95132e-24
-1.00591e-24
6.28842e-25
-2.97935e-24
5.27798e-25
-1.56577e-24
-3.50747e-25
2.16602e-25
9.04706e-25
-3.35804e-24
-1.16684e-24
-1.09494e-24
3.26752e-24
8.65522e-25
1.6919e-25
3.87371e-26
9.37441e-26
4.79553e-25
1.88294e-24
4.5263e-25
-9.06862e-26
-9.45721e-25
-3.77077e-24
-9.59215e-25
-1.8425e-25
-5.05958e-26
-1.57679e-25
-7.78127e-25
-2.8133e-24
2.81291e-24
7.74515e-25
1.27472e-25
-1.57681e-25
-9.56196e-25
-3.77207e-24
-9.59109e-25
-1.8134e-25
-2.69354e-26
-3.27129e-27
-3.3455e-28
-2.94748e-29
-2.58259e-30
-4.69865e-30
-5.89219e-29
-6.69116e-28
-6.54278e-27
-5.38724e-26
-3.62692e-25
-1.91829e-24
-7.54471e-24
-1.91827e-24
-3.6269e-25
-5.38719e-26
-6.54275e-27
-6.69112e-28
-5.89132e-29
-4.54318e-30
-3.11073e-31
-1.91213e-32
-1.06482e-33
-5.41318e-35
-2.5285e-36
-1.09123e-37
-4.37225e-39
-1.6333e-40
-5.7095e-42
-1.87344e-43
-5.79224e-45
-1.69941e-46
-4.83208e-48
-1.17107e-49
-8.3981e-51
-4.63593e-51
-2.1297e-51
-9.55666e-52
-4.25765e-52
-1.88312e-52
-8.26755e-53
-3.60243e-53
-1.55735e-53
-6.66998e-54
-2.80798e-54
-1.10812e-54
-2.75505e-55
)
;
    }
    outlet
    {
        type            cyclic;
        value           nonuniform List<scalar> 
120
(
1.28408e-27
4.06017e-27
2.29648e-25
6.29948e-26
3.35786e-26
1.18203e-25
4.49038e-25
-3.89087e-28
-4.52241e-25
-1.39193e-25
-1.42152e-25
-4.74869e-25
-1.20298e-25
-2.27101e-26
-3.37077e-27
-4.09299e-28
-4.29767e-29
-1.84096e-29
-1.67525e-28
-1.63515e-27
-1.34606e-26
-9.05884e-26
-4.78747e-25
-1.87944e-24
-4.34049e-25
1.50916e-25
9.44729e-25
3.42286e-25
6.15405e-25
2.37246e-24
2.36639e-24
5.6853e-25
8.91947e-26
-8.75529e-26
-5.56336e-25
-2.28525e-24
-1.95132e-24
1.00591e-24
-6.28842e-25
2.97935e-24
-5.27798e-25
1.56577e-24
3.50747e-25
-2.16602e-25
-9.04706e-25
3.35804e-24
1.16684e-24
1.09494e-24
-3.26752e-24
-8.65522e-25
-1.6919e-25
-3.87371e-26
-9.37441e-26
-4.79553e-25
-1.88294e-24
-4.5263e-25
9.06862e-26
9.45721e-25
3.77077e-24
9.59215e-25
1.8425e-25
5.05958e-26
1.57679e-25
7.78127e-25
2.8133e-24
-2.81291e-24
-7.74515e-25
-1.27472e-25
1.57681e-25
9.56196e-25
3.77207e-24
9.59109e-25
1.8134e-25
2.69354e-26
3.27129e-27
3.3455e-28
2.94748e-29
2.58259e-30
4.69865e-30
5.89219e-29
6.69116e-28
6.54278e-27
5.38724e-26
3.62692e-25
1.91829e-24
7.54471e-24
1.91827e-24
3.6269e-25
5.38719e-26
6.54275e-27
6.69112e-28
5.89132e-29
4.54318e-30
3.11073e-31
1.91213e-32
1.06482e-33
5.41318e-35
2.5285e-36
1.09123e-37
4.37225e-39
1.6333e-40
5.7095e-42
1.87344e-43
5.79224e-45
1.69941e-46
4.83208e-48
1.17107e-49
8.3981e-51
4.63593e-51
2.1297e-51
9.55666e-52
4.25765e-52
1.88312e-52
8.26755e-53
3.60243e-53
1.55735e-53
6.66998e-54
2.80798e-54
1.10812e-54
2.75505e-55
)
;
    }
    top
    {
        type            fixedValue;
        value           uniform 0;
    }
    bottom
    {
        type            fixedValue;
        value           uniform 0;
    }
    frontAndBackPlanes
    {
        type            empty;
        value           nonuniform List<scalar> 0();
    }
}


// ************************************************************************* //
