/*--------------------------------*- C++ -*----------------------------------*\
| =========                 |                                                 |
| \\      /  F ield         | OpenFOAM: The Open Source CFD Toolbox           |
|  \\    /   O peration     | Version:  v2006                                 |
|   \\  /    A nd           | Website:  www.openfoam.com                      |
|    \\/     M anipulation  |                                                 |
\*---------------------------------------------------------------------------*/
FoamFile
{
    version     2.0;
    format      ascii;
    class       volTensorField;
    location    "20";
    object      Taua;
}
// * * * * * * * * * * * * * * * * * * * * * * * * * * * * * * * * * * * * * //

dimensions      [1 -1 -2 0 0 0 0];


internalField   nonuniform List<tensor> 
120
(
(0.0137215 0 0 1.49222e-15 -0.027443 0 0 0 0.0137215)
(1.59864e-06 0 0 4.3258e-19 -3.19729e-06 0 0 0 1.59864e-06)
(9.77809e-07 0 0 1.07849e-19 -1.95562e-06 0 0 0 9.77809e-07)
(-3.92581e-07 0 0 -3.48352e-19 7.85162e-07 0 0 0 -3.92581e-07)
(1.23297e-07 0 0 9.6644e-20 -2.46595e-07 0 0 0 1.23297e-07)
(1.19812e-08 0 0 7.36627e-19 -2.39624e-08 0 0 0 1.19812e-08)
(1.70148e-09 0 0 -2.07521e-19 -3.40297e-09 0 0 0 1.70148e-09)
(2.34473e-10 0 0 -1.59632e-18 -4.68946e-10 0 0 0 2.34473e-10)
(-2.62841e-11 0 0 -2.42886e-19 5.25682e-11 0 0 0 -2.62841e-11)
(-5.7839e-12 0 0 5.52218e-19 1.15678e-11 0 0 0 -5.7839e-12)
(3.68164e-13 0 0 -5.96988e-19 -7.36328e-13 0 0 0 3.68164e-13)
(-6.51135e-15 0 0 3.8239e-20 1.30227e-14 0 0 0 -6.51135e-15)
(-8.64153e-14 0 0 8.00818e-19 1.72831e-13 0 0 0 -8.64153e-14)
(-4.5981e-14 0 0 2.04607e-19 9.19621e-14 0 0 0 -4.5981e-14)
(2.85777e-15 0 0 3.90211e-20 -5.71553e-15 0 0 0 2.85777e-15)
(-3.43497e-14 0 0 5.82255e-21 6.86994e-14 0 0 0 -3.43497e-14)
(7.4097e-15 0 0 6.83892e-22 -1.48194e-14 0 0 0 7.4097e-15)
(-1.07227e-14 0 0 -2.17895e-22 2.14454e-14 0 0 0 -1.07227e-14)
(2.39164e-14 0 0 -2.82861e-21 -4.78327e-14 0 0 0 2.39164e-14)
(-3.22416e-14 0 0 -2.32586e-20 6.44832e-14 0 0 0 -3.22416e-14)
(6.24227e-15 0 0 -1.55648e-19 -1.24845e-14 0 0 0 6.24227e-15)
(-6.89923e-15 0 0 -8.14191e-19 1.37985e-14 0 0 0 -6.89923e-15)
(3.41699e-14 0 0 -3.16865e-18 -6.83398e-14 0 0 0 3.41699e-14)
(6.66437e-15 0 0 7.82119e-20 -1.33287e-14 0 0 0 6.66437e-15)
(3.59284e-14 0 0 3.59125e-18 -7.18569e-14 0 0 0 3.59284e-14)
(1.89229e-14 0 0 2.43188e-18 -3.78458e-14 0 0 0 1.89229e-14)
(3.49227e-14 0 0 3.34852e-19 -6.98454e-14 0 0 0 3.49227e-14)
(8.07579e-15 0 0 -5.95484e-19 -1.61516e-14 0 0 0 8.07579e-15)
(2.13656e-14 0 0 3.59094e-18 -4.27313e-14 0 0 0 2.13656e-14)
(1.07503e-14 0 0 3.1024e-18 -2.15005e-14 0 0 0 1.07503e-14)
(2.19452e-14 0 0 -3.19504e-18 -4.38905e-14 0 0 0 2.19452e-14)
(1.26358e-14 0 0 -4.02319e-18 -2.52717e-14 0 0 0 1.26358e-14)
(1.90603e-14 0 0 -1.14804e-18 -3.81206e-14 0 0 0 1.90603e-14)
(1.30639e-14 0 0 -1.12958e-18 -2.61277e-14 0 0 0 1.30639e-14)
(1.51151e-14 0 0 -3.88409e-18 -3.02302e-14 0 0 0 1.51151e-14)
(7.69876e-15 1.17803e-21 0 -2.47944e-18 -1.53975e-14 0 0 0 7.69876e-15)
(9.7835e-15 0 0 5.83589e-18 -1.9567e-14 0 0 0 9.7835e-15)
(6.26254e-15 0 0 2.31417e-18 -1.25251e-14 0 0 0 6.26254e-15)
(6.5064e-15 0 0 3.49164e-18 -1.30128e-14 0 0 0 6.5064e-15)
(5.1325e-15 0 0 1.76803e-19 -1.0265e-14 0 0 0 5.1325e-15)
(5.75299e-15 0 0 -2.51197e-18 -1.1506e-14 0 0 0 5.75299e-15)
(3.71135e-15 0 0 1.57573e-18 -7.42271e-15 0 0 0 3.71135e-15)
(3.40918e-15 0 0 -3.15732e-18 -6.81836e-15 0 0 0 3.40918e-15)
(2.14463e-15 0 0 -2.23528e-18 -4.28925e-15 0 0 0 2.14463e-15)
(2.10188e-15 0 0 6.33197e-18 -4.20377e-15 0 0 0 2.10188e-15)
(9.50729e-16 0 0 3.66335e-18 -1.90146e-15 0 0 0 9.50729e-16)
(3.01821e-16 0 0 -3.99854e-18 -6.03642e-16 0 0 0 3.01821e-16)
(3.60635e-16 0 0 -7.83635e-18 -7.21269e-16 0 0 0 3.60635e-16)
(-1.54189e-16 0 0 -3.46893e-18 3.08377e-16 0 0 0 -1.54189e-16)
(-1.31254e-15 0 0 5.49848e-18 2.62509e-15 0 0 0 -1.31254e-15)
(-1.83528e-15 0 0 1.44678e-18 3.67056e-15 0 0 0 -1.83528e-15)
(-1.83064e-15 0 0 1.32014e-19 3.66128e-15 0 0 0 -1.83064e-15)
(-2.49949e-15 0 0 -7.71375e-19 4.99898e-15 0 0 0 -2.49949e-15)
(-3.46902e-15 0 0 -3.16927e-18 6.93803e-15 0 0 0 -3.46902e-15)
(-5.09534e-15 0 0 4.71078e-20 1.01907e-14 0 0 0 -5.09534e-15)
(-5.97e-15 0 0 3.49198e-18 1.194e-14 0 0 0 -5.97e-15)
(-8.54404e-15 0 0 2.44693e-18 1.70881e-14 0 0 0 -8.54404e-15)
(-9.86243e-15 0 0 6.51646e-18 1.97249e-14 0 0 0 -9.86243e-15)
(-1.23124e-14 -1.17803e-21 0 2.36085e-20 2.46248e-14 0 0 0 -1.23124e-14)
(-1.26396e-14 0 0 -6.35274e-18 2.52792e-14 0 0 0 -1.26396e-14)
(-1.68137e-14 0 0 -1.58997e-18 3.36274e-14 0 0 0 -1.68137e-14)
(-1.79802e-14 0 0 -4.64898e-20 3.59604e-14 0 0 0 -1.79802e-14)
(-2.67468e-14 0 0 1.27311e-18 5.34936e-14 0 0 0 -2.67468e-14)
(-3.21041e-14 0 0 4.72379e-18 6.42082e-14 0 0 0 -3.21041e-14)
(-4.50368e-14 0 0 -6.36064e-18 9.00737e-14 0 0 0 -4.50368e-14)
(-4.61855e-14 0 0 -6.35501e-18 9.23711e-14 0 0 0 -4.61855e-14)
(-5.95158e-14 0 0 4.77596e-18 1.19032e-13 0 0 0 -5.95158e-14)
(-5.98496e-14 0 0 1.63122e-18 1.19699e-13 0 0 0 -5.98496e-14)
(-8.1815e-14 0 0 1.89626e-18 1.6363e-13 0 0 0 -8.1815e-14)
(-7.84346e-14 0 0 6.4015e-18 1.56869e-13 0 0 0 -7.84346e-14)
(-1.17533e-13 0 0 5.09508e-21 2.35067e-13 0 0 0 -1.17533e-13)
(-1.38569e-13 0 0 -6.3601e-18 2.77139e-13 0 0 0 -1.38569e-13)
(-1.96334e-13 0 0 -1.63118e-18 3.92668e-13 0 0 0 -1.96334e-13)
(-1.85894e-13 0 0 -3.11578e-19 3.71788e-13 0 0 0 -1.85894e-13)
(-2.36999e-13 0 0 -4.65428e-20 4.73998e-13 0 0 0 -2.36999e-13)
(-2.28772e-13 0 0 -5.67178e-21 4.57543e-13 0 0 0 -2.28772e-13)
(-3.06511e-13 0 0 -5.80769e-22 6.13021e-13 0 0 0 -3.06511e-13)
(-2.66347e-13 0 0 -4.3343e-23 5.32694e-13 0 0 0 -2.66347e-13)
(-3.96281e-13 0 0 9.85588e-23 7.92563e-13 0 0 0 -3.96281e-13)
(-4.56963e-13 0 0 1.16238e-21 9.13926e-13 0 0 0 -4.56963e-13)
(-6.42043e-13 0 0 1.1344e-20 1.28409e-12 0 0 0 -6.42043e-13)
(-5.67606e-13 0 0 9.30885e-20 1.13521e-12 0 0 0 -5.67606e-13)
(-6.84498e-13 0 0 6.23179e-19 1.369e-12 0 0 0 -6.84498e-13)
(-6.30756e-13 0 0 3.26249e-18 1.26151e-12 0 0 0 -6.30756e-13)
(-7.91683e-13 0 0 1.27212e-17 1.58337e-12 0 0 0 -7.91683e-13)
(-6.08652e-13 0 0 -3.35774e-23 1.2173e-12 0 0 0 -6.08652e-13)
(-8.67824e-13 0 0 -1.27212e-17 1.73565e-12 0 0 0 -8.67824e-13)
(-1.00543e-12 0 0 -3.26245e-18 2.01086e-12 0 0 0 -1.00543e-12)
(-1.38994e-12 0 0 -6.23175e-19 2.77988e-12 0 0 0 -1.38994e-12)
(-1.14801e-12 0 0 -9.30873e-20 2.29602e-12 0 0 0 -1.14801e-12)
(-1.2373e-12 0 0 -1.13439e-20 2.4746e-12 0 0 0 -1.2373e-12)
(-1.07311e-12 0 0 -1.16264e-21 2.14622e-12 0 0 0 -1.07311e-12)
(-1.17563e-12 0 0 -1.02517e-22 2.35126e-12 0 0 0 -1.17563e-12)
(-6.83789e-13 0 0 -7.9138e-24 1.36758e-12 0 0 0 -6.83789e-13)
(-8.94805e-13 0 0 -5.42256e-25 1.78961e-12 0 0 0 -8.94805e-13)
(-1.92661e-12 0 0 -3.33496e-26 3.85323e-12 0 0 0 -1.92661e-12)
(-2.15337e-12 0 0 -1.85791e-27 4.30674e-12 0 0 0 -2.15337e-12)
(2.92387e-11 0 0 -9.44779e-29 -5.84773e-11 0 0 0 2.92387e-11)
(4.30571e-11 0 0 -4.41409e-30 -8.61142e-11 0 0 0 4.30571e-11)
(-9.77532e-10 0 0 -1.90533e-31 1.95506e-09 0 0 0 -9.77532e-10)
(-2.24986e-09 0 0 -7.63511e-33 4.49971e-09 0 0 0 -2.24986e-09)
(2.60558e-08 0 0 -2.85246e-34 -5.21116e-08 0 0 0 2.60558e-08)
(7.8697e-08 0 0 -9.97279e-36 -1.57394e-07 0 0 0 7.8697e-08)
(-5.26957e-07 0 0 -3.27211e-37 1.05391e-06 0 0 0 -5.26957e-07)
(-2.26241e-06 0 0 -1.0105e-38 4.52482e-06 0 0 0 -2.26241e-06)
(1.10443e-05 0 0 -2.94668e-40 -2.20886e-05 0 0 0 1.10443e-05)
(4.9906e-05 0 0 -8.60041e-42 -9.9812e-05 0 0 0 4.9906e-05)
(1.41135e-05 0 0 -1.5165e-43 -2.82269e-05 0 0 0 1.41135e-05)
(-7.50711e-07 0 0 -4.82646e-46 1.50142e-06 0 0 0 -7.50711e-07)
(3.65881e-09 0 0 -2.29199e-48 -7.31761e-09 0 0 0 3.65881e-09)
(8.0421e-10 0 0 -2.45331e-49 -1.60842e-09 0 0 0 8.0421e-10)
(-1.1951e-11 0 0 -5.24787e-50 2.3902e-11 0 0 0 -1.1951e-11)
(-1.31384e-11 0 0 -1.15955e-50 2.62768e-11 0 0 0 -1.31384e-11)
(-2.91875e-13 0 0 -2.53008e-51 5.83751e-13 0 0 0 -2.91875e-13)
(2.35938e-13 0 0 -5.1756e-52 -4.71876e-13 0 0 0 2.35938e-13)
(9.73756e-15 0 0 -9.46522e-53 -1.94751e-14 0 0 0 9.73756e-15)
(-5.44469e-15 0 0 -1.46156e-53 1.08894e-14 0 0 0 -5.44469e-15)
(-2.11818e-15 0 0 -1.78216e-54 4.23635e-15 0 0 0 -2.11818e-15)
(-2.9408e-15 0 0 -1.57732e-55 5.88159e-15 0 0 0 -2.9408e-15)
(-2.87113e-13 0 0 -8.69922e-57 5.74227e-13 0 0 0 -2.87113e-13)
)
;

boundaryField
{
    inlet
    {
        type            cyclic;
    }
    outlet
    {
        type            cyclic;
    }
    top
    {
        type            extrapolatedCalculated;
        value           uniform (-5.73678e-13 0 0 -6.92851e-57 1.14736e-12 0 0 0 -5.73678e-13);
    }
    bottom
    {
        type            extrapolatedCalculated;
        value           uniform (0.0133376 0 0 1.85863e-15 -0.0266752 0 0 0 0.0133376);
    }
    frontAndBackPlanes
    {
        type            empty;
    }
}


// ************************************************************************* //
