/*--------------------------------*- C++ -*----------------------------------*\
| =========                 |                                                 |
| \\      /  F ield         | OpenFOAM: The Open Source CFD Toolbox           |
|  \\    /   O peration     | Version:  v2006                                 |
|   \\  /    A nd           | Website:  www.openfoam.com                      |
|    \\/     M anipulation  |                                                 |
\*---------------------------------------------------------------------------*/
FoamFile
{
    version     2.0;
    format      ascii;
    class       volTensorField;
    location    "20";
    object      Taub;
}
// * * * * * * * * * * * * * * * * * * * * * * * * * * * * * * * * * * * * * //

dimensions      [1 -1 -2 0 0 0 0];


internalField   nonuniform List<tensor> 
120
(
(-5.83274e-05 0 0 8.75532e-19 0.000116655 0 0 0 -5.83274e-05)
(-5.81209e-05 0 0 3.5601e-17 0.000116242 0 0 0 -5.81209e-05)
(-5.07716e-05 0 0 8.92642e-18 0.000101543 0 0 0 -5.07716e-05)
(-4.24659e-05 0 0 -2.94525e-17 8.49317e-05 0 0 0 -4.24659e-05)
(7.66902e-06 0 0 8.28193e-18 -1.5338e-05 0 0 0 7.66902e-06)
(6.13213e-07 0 0 6.23123e-17 -1.22643e-06 0 0 0 6.13213e-07)
(1.04478e-07 0 0 -1.77866e-17 -2.08957e-07 0 0 0 1.04478e-07)
(2.07327e-08 0 0 -1.35175e-16 -4.14653e-08 0 0 0 2.07327e-08)
(-2.00225e-09 0 0 -2.0818e-17 4.00451e-09 0 0 0 -2.00225e-09)
(-4.39299e-10 0 0 4.65076e-17 8.78599e-10 0 0 0 -4.39299e-10)
(4.5646e-11 0 0 -5.03451e-17 -9.12921e-11 0 0 0 4.5646e-11)
(8.43162e-12 0 0 3.27762e-18 -1.68632e-11 0 0 0 8.43162e-12)
(3.08477e-12 0 0 6.78154e-17 -6.16954e-12 0 0 0 3.08477e-12)
(6.79199e-12 0 0 1.75369e-17 -1.3584e-11 0 0 0 6.79199e-12)
(8.09042e-12 0 0 3.3447e-18 -1.61808e-11 0 0 0 8.09042e-12)
(-2.60641e-12 0 0 4.99107e-19 5.21283e-12 0 0 0 -2.60641e-12)
(-7.39472e-13 0 0 5.86261e-20 1.47894e-12 0 0 0 -7.39472e-13)
(-3.99603e-13 0 0 -1.86799e-20 7.99207e-13 0 0 0 -3.99603e-13)
(7.37244e-12 0 0 -2.4248e-19 -1.47449e-11 0 0 0 7.37244e-12)
(2.6427e-12 0 0 -1.99371e-18 -5.28539e-12 0 0 0 2.6427e-12)
(7.28807e-12 0 0 -1.33413e-17 -1.45761e-11 0 0 0 7.28807e-12)
(5.12105e-12 0 0 -6.97843e-17 -1.02421e-11 0 0 0 5.12105e-12)
(7.5398e-12 0 0 -2.68294e-16 -1.50796e-11 0 0 0 7.5398e-12)
(1.02967e-12 0 0 6.70383e-18 -2.05933e-12 0 0 0 1.02967e-12)
(2.50878e-12 0 0 3.04515e-16 -5.01756e-12 0 0 0 2.50878e-12)
(9.84912e-13 0 0 2.06791e-16 -1.96982e-12 0 0 0 9.84912e-13)
(4.15254e-12 0 0 2.87019e-17 -8.30508e-12 0 0 0 4.15254e-12)
(1.79592e-12 0 0 -4.93924e-17 -3.59184e-12 0 0 0 1.79592e-12)
(3.53347e-12 0 0 3.04488e-16 -7.06694e-12 0 0 0 3.53347e-12)
(2.14795e-12 0 0 2.62615e-16 -4.29589e-12 0 0 0 2.14795e-12)
(2.79735e-12 0 0 -2.70556e-16 -5.59469e-12 0 0 0 2.79735e-12)
(8.48058e-13 0 0 -3.41537e-16 -1.69612e-12 0 0 0 8.48058e-13)
(1.11158e-12 0 0 -9.84001e-17 -2.22315e-12 0 0 0 1.11158e-12)
(5.42275e-13 0 0 -9.68175e-17 -1.08455e-12 0 0 0 5.42275e-13)
(1.1628e-12 0 0 -3.29614e-16 -2.3256e-12 0 0 0 1.1628e-12)
(5.81687e-13 -1.00962e-19 0 -2.09222e-16 -1.16337e-12 0 0 0 5.81687e-13)
(9.40273e-13 0 0 4.93613e-16 -1.88055e-12 0 0 0 9.40273e-13)
(5.61346e-13 0 0 1.98347e-16 -1.12269e-12 0 0 0 5.61346e-13)
(5.24058e-13 0 0 2.95979e-16 -1.04812e-12 0 0 0 5.24058e-13)
(2.08773e-13 0 0 1.51548e-17 -4.17547e-13 0 0 0 2.08773e-13)
(2.17972e-13 0 0 -2.1201e-16 -4.35944e-13 0 0 0 2.17972e-13)
(5.92556e-14 0 0 1.31765e-16 -1.18511e-13 0 0 0 5.92556e-14)
(1.29633e-13 0 0 -2.67322e-16 -2.59265e-13 0 0 0 1.29633e-13)
(6.02814e-14 0 0 -1.88294e-16 -1.20563e-13 0 0 0 6.02814e-14)
(9.94715e-14 0 0 5.3613e-16 -1.98943e-13 0 0 0 9.94715e-14)
(-2.70237e-15 0 0 3.10693e-16 5.40474e-15 0 0 0 -2.70237e-15)
(-7.37114e-14 0 0 -3.39423e-16 1.47423e-13 0 0 0 -7.37114e-14)
(-1.0207e-13 0 0 -6.65071e-16 2.0414e-13 0 0 0 -1.0207e-13)
(-1.56894e-13 0 0 -2.94032e-16 3.13787e-13 0 0 0 -1.56894e-13)
(-2.48058e-13 0 0 4.64692e-16 4.96116e-13 0 0 0 -2.48058e-13)
(-2.78957e-13 0 0 1.24002e-16 5.57913e-13 0 0 0 -2.78957e-13)
(-2.76531e-13 0 0 1.13155e-17 5.53063e-13 0 0 0 -2.76531e-13)
(-3.4795e-13 0 0 -6.61141e-17 6.959e-13 0 0 0 -3.4795e-13)
(-4.5988e-13 0 0 -2.68347e-16 9.19759e-13 0 0 0 -4.5988e-13)
(-6.52833e-13 0 0 4.03797e-18 1.30567e-12 0 0 0 -6.52833e-13)
(-7.83108e-13 0 0 2.96008e-16 1.56622e-12 0 0 0 -7.83108e-13)
(-1.04493e-12 0 0 2.09726e-16 2.08985e-12 0 0 0 -1.04493e-12)
(-1.16084e-12 0 0 5.51944e-16 2.32168e-12 0 0 0 -1.16084e-12)
(-1.38988e-12 1.00962e-19 0 2.0239e-18 2.77976e-12 0 0 0 -1.38988e-12)
(-1.44903e-12 0 0 -5.37911e-16 2.89807e-12 0 0 0 -1.44903e-12)
(-1.91343e-12 0 0 -1.36276e-16 3.82687e-12 0 0 0 -1.91343e-12)
(-2.13474e-12 0 0 -3.98514e-18 4.26948e-12 0 0 0 -2.13474e-12)
(-3.12378e-12 0 0 1.09116e-16 6.24756e-12 0 0 0 -3.12378e-12)
(-3.78738e-12 0 0 3.98294e-16 7.57476e-12 0 0 0 -3.78738e-12)
(-5.05005e-12 0 0 -5.38588e-16 1.01001e-11 0 0 0 -5.05005e-12)
(-5.06038e-12 0 0 -5.38105e-16 1.01208e-11 0 0 0 -5.06038e-12)
(-6.21973e-12 0 0 4.02765e-16 1.24395e-11 0 0 0 -6.21973e-12)
(-6.25616e-12 0 0 1.39812e-16 1.25123e-11 0 0 0 -6.25616e-12)
(-8.51882e-12 0 0 1.6253e-16 1.70376e-11 0 0 0 -8.51882e-12)
(-8.54548e-12 0 0 5.4209e-16 1.7091e-11 0 0 0 -8.54548e-12)
(-1.28141e-11 0 0 4.36913e-19 2.56282e-11 0 0 0 -1.28141e-11)
(-1.52636e-11 0 0 -5.38542e-16 3.05271e-11 0 0 0 -1.52636e-11)
(-2.06516e-11 0 0 -1.39809e-16 4.13032e-11 0 0 0 -2.06516e-11)
(-1.88667e-11 0 0 -2.67069e-17 3.77335e-11 0 0 0 -1.88667e-11)
(-2.29075e-11 0 0 -3.98963e-18 4.58149e-11 0 0 0 -2.29075e-11)
(-2.17052e-11 0 0 -4.86211e-19 4.34103e-11 0 0 0 -2.17052e-11)
(-2.93766e-11 0 0 -4.9789e-20 5.87532e-11 0 0 0 -2.93766e-11)
(-2.63373e-11 0 0 -3.71595e-21 5.26746e-11 0 0 0 -2.63373e-11)
(-4.04329e-11 0 0 8.44984e-21 8.08658e-11 0 0 0 -4.04329e-11)
(-4.74516e-11 0 0 9.96501e-20 9.49032e-11 0 0 0 -4.74516e-11)
(-6.42546e-11 0 0 9.72458e-19 1.28509e-10 0 0 0 -6.42546e-11)
(-5.34998e-11 0 0 7.9795e-18 1.07e-10 0 0 0 -5.34998e-11)
(-6.11895e-11 0 0 5.34156e-17 1.22379e-10 0 0 0 -6.11895e-11)
(-5.40145e-11 0 0 2.79628e-16 1.08029e-10 0 0 0 -5.40145e-11)
(-6.96317e-11 0 0 1.07717e-15 1.39263e-10 0 0 0 -6.96317e-11)
(-5.36295e-11 0 0 -2.49096e-21 1.07259e-10 0 0 0 -5.36295e-11)
(-8.33016e-11 0 0 -1.07717e-15 1.66603e-10 0 0 0 -8.33016e-11)
(-1.00151e-10 0 0 -2.79625e-16 2.00302e-10 0 0 0 -1.00151e-10)
(-1.34867e-10 0 0 -5.34155e-17 2.69734e-10 0 0 0 -1.34867e-10)
(-1.01453e-10 0 0 -7.97942e-18 2.02907e-10 0 0 0 -1.01453e-10)
(-1.00984e-10 0 0 -9.72454e-19 2.01968e-10 0 0 0 -1.00984e-10)
(-8.04781e-11 0 0 -9.96729e-20 1.60956e-10 0 0 0 -8.04781e-11)
(-9.09873e-11 0 0 -8.78922e-21 1.81975e-10 0 0 0 -9.09873e-11)
(-4.72768e-11 0 0 -6.78524e-22 9.45537e-11 0 0 0 -4.72768e-11)
(-7.86398e-11 0 0 -4.64955e-23 1.5728e-10 0 0 0 -7.86398e-11)
(-1.78268e-10 0 0 -2.85971e-24 3.56536e-10 0 0 0 -1.78268e-10)
(-2.0661e-10 0 0 -1.59324e-25 4.1322e-10 0 0 0 -2.0661e-10)
(2.4397e-09 0 0 -8.10239e-27 -4.87941e-09 0 0 0 2.4397e-09)
(3.62061e-09 0 0 -3.78573e-28 -7.24122e-09 0 0 0 3.62061e-09)
(-8.24874e-08 0 0 -1.63419e-29 1.64975e-07 0 0 0 -8.24874e-08)
(-1.87623e-07 0 0 -6.54899e-31 3.75247e-07 0 0 0 -1.87623e-07)
(2.2224e-06 0 0 -2.44683e-32 -4.4448e-06 0 0 0 2.2224e-06)
(6.63475e-06 0 0 -8.55484e-34 -1.32695e-05 0 0 0 6.63475e-06)
(-4.52628e-05 0 0 -2.8072e-35 9.05257e-05 0 0 0 -4.52628e-05)
(-0.00019261 0 0 -8.67422e-37 0.00038522 0 0 0 -0.00019261)
(0.000965901 0 0 -2.5366e-38 -0.0019318 0 0 0 0.000965901)
(0.0039133 0 0 -7.31501e-40 -0.00782659 0 0 0 0.0039133)
(-0.00100866 0 0 -1.4727e-41 0.00201733 0 0 0 -0.00100866)
(-0.00200104 0 0 -4.40861e-43 0.00400208 0 0 0 -0.00200104)
(0.000142888 0 0 -2.45429e-43 -0.000285777 0 0 0 0.000142888)
(0.000325821 0 0 -1.13593e-43 -0.000651643 0 0 0 0.000325821)
(2.85748e-06 0 0 -5.1153e-44 -5.71496e-06 0 0 0 2.85748e-06)
(-2.53762e-05 0 0 -2.28703e-44 5.07525e-05 0 0 0 -2.53762e-05)
(-1.24489e-06 0 0 -1.01514e-44 2.48978e-06 0 0 0 -1.24489e-06)
(1.95783e-06 0 0 -4.47293e-45 -3.91567e-06 0 0 0 1.95783e-06)
(1.88443e-07 0 0 -1.95671e-45 -3.76886e-07 0 0 0 1.88443e-07)
(-1.40936e-07 0 0 -8.50927e-46 2.81873e-07 0 0 0 -1.40936e-07)
(-1.81782e-08 0 0 -3.70744e-46 3.63563e-08 0 0 0 -1.81782e-08)
(1.12265e-08 0 0 -1.68811e-46 -2.2453e-08 0 0 0 1.12265e-08)
(3.38033e-09 0 0 -9.22304e-47 -6.76067e-09 0 0 0 3.38033e-09)
)
;

boundaryField
{
    inlet
    {
        type            cyclic;
    }
    outlet
    {
        type            cyclic;
    }
    top
    {
        type            extrapolatedCalculated;
        value           uniform (1.58808e-09 0 0 -7.34588e-47 -3.17616e-09 0 0 0 1.58808e-09);
    }
    bottom
    {
        type            extrapolatedCalculated;
        value           uniform (3.88746e-06 0 0 8.4147e-19 -7.77493e-06 0 0 0 3.88746e-06);
    }
    frontAndBackPlanes
    {
        type            empty;
    }
}


// ************************************************************************* //
