/*--------------------------------*- C++ -*----------------------------------*\
| =========                 |                                                 |
| \\      /  F ield         | OpenFOAM: The Open Source CFD Toolbox           |
|  \\    /   O peration     | Version:  v2006                                 |
|   \\  /    A nd           | Website:  www.openfoam.com                      |
|    \\/     M anipulation  |                                                 |
\*---------------------------------------------------------------------------*/
FoamFile
{
    version     2.0;
    format      ascii;
    class       volVectorField;
    location    "20";
    object      Ua;
}
// * * * * * * * * * * * * * * * * * * * * * * * * * * * * * * * * * * * * * //

dimensions      [0 1 -1 0 0 0 0];


internalField   nonuniform List<vector> 
120
(
(4.24026e-21 -9.12847e-08 0)
(8.12856e-21 -2.49924e-07 0)
(7.7359e-19 -8.62093e-06 0)
(2.09966e-19 -5.73978e-06 0)
(1.11914e-19 -6.38388e-06 0)
(3.9398e-19 -6.44407e-06 0)
(1.51497e-18 -6.45234e-06 0)
(-1.29701e-21 -6.45379e-06 0)
(-1.52564e-18 -6.45368e-06 0)
(-4.63937e-19 -6.45364e-06 0)
(-4.73798e-19 -6.45364e-06 0)
(-1.60106e-18 -6.45364e-06 0)
(-4.00961e-19 -6.45364e-06 0)
(-7.569e-20 -6.45364e-06 0)
(-1.12338e-20 -6.45364e-06 0)
(-1.364e-21 -6.45364e-06 0)
(-1.43212e-22 -6.45364e-06 0)
(-6.13435e-23 -6.45364e-06 0)
(-5.5825e-22 -6.45364e-06 0)
(-5.44916e-21 -6.45364e-06 0)
(-4.48603e-20 -6.45364e-06 0)
(-3.01921e-19 -6.45364e-06 0)
(-1.5957e-18 -6.45364e-06 0)
(-6.33745e-18 -6.45364e-06 0)
(-1.44673e-18 -6.45364e-06 0)
(5.03031e-19 -6.45364e-06 0)
(3.18542e-18 -6.45364e-06 0)
(1.14084e-18 -6.45364e-06 0)
(2.05117e-18 -6.45364e-06 0)
(7.98072e-18 -6.45364e-06 0)
(7.96049e-18 -6.45364e-06 0)
(1.89493e-18 -6.45364e-06 0)
(2.97276e-19 -6.45364e-06 0)
(-2.91805e-19 -6.45364e-06 0)
(-1.8543e-18 -6.45364e-06 0)
(-7.69007e-18 -6.45364e-06 0)
(-6.57703e-18 -6.45364e-06 0)
(3.42591e-18 -6.45364e-06 0)
(-2.16909e-18 -6.45364e-06 0)
(1.00766e-17 -6.45364e-06 0)
(-1.83232e-18 -6.45364e-06 0)
(5.29194e-18 -6.45364e-06 0)
(1.16908e-18 -6.45364e-06 0)
(-7.21997e-19 -6.45364e-06 0)
(-3.0886e-18 -6.45364e-06 0)
(1.13389e-17 -6.45364e-06 0)
(3.8892e-18 -6.45364e-06 0)
(3.72262e-18 -6.45364e-06 0)
(-1.10372e-17 -6.45364e-06 0)
(-2.88486e-18 -6.45364e-06 0)
(-5.63893e-19 -6.45364e-06 0)
(-1.291e-19 -6.45364e-06 0)
(-3.12438e-19 -6.45364e-06 0)
(-1.59838e-18 -6.45364e-06 0)
(-6.34914e-18 -6.45364e-06 0)
(-1.50866e-18 -6.45364e-06 0)
(3.02247e-19 -6.45364e-06 0)
(3.15216e-18 -6.45364e-06 0)
(1.27145e-17 -6.45364e-06 0)
(3.19713e-18 -6.45364e-06 0)
(6.14081e-19 -6.45364e-06 0)
(1.68622e-19 -6.45364e-06 0)
(5.25529e-19 -6.45364e-06 0)
(2.59359e-18 -6.45364e-06 0)
(9.52323e-18 -6.45364e-06 0)
(-9.52192e-18 -6.45364e-06 0)
(-2.58155e-18 -6.45364e-06 0)
(-4.24857e-19 -6.45364e-06 0)
(5.25536e-19 -6.45364e-06 0)
(3.18707e-18 -6.45364e-06 0)
(1.27189e-17 -6.45364e-06 0)
(3.19678e-18 -6.45364e-06 0)
(6.04383e-19 -6.45364e-06 0)
(8.97678e-20 -6.45364e-06 0)
(1.09016e-20 -6.45364e-06 0)
(1.11483e-21 -6.45364e-06 0)
(9.82137e-23 -6.45364e-06 0)
(8.60498e-24 -6.45364e-06 0)
(1.56556e-23 -6.45364e-06 0)
(1.96336e-22 -6.45363e-06 0)
(2.22972e-21 -6.45363e-06 0)
(2.1804e-20 -6.45363e-06 0)
(1.79541e-19 -6.45363e-06 0)
(1.20881e-18 -6.45363e-06 0)
(6.3938e-18 -6.45363e-06 0)
(2.54396e-17 -6.45362e-06 0)
(6.39374e-18 -6.45362e-06 0)
(1.2088e-18 -6.45362e-06 0)
(1.79539e-19 -6.45362e-06 0)
(2.18038e-20 -6.45361e-06 0)
(2.2297e-21 -6.45361e-06 0)
(1.96306e-22 -6.4536e-06 0)
(1.51376e-23 -6.45361e-06 0)
(1.03642e-24 -6.4536e-06 0)
(6.37034e-26 -6.4536e-06 0)
(3.54729e-27 -6.45359e-06 0)
(1.80321e-28 -6.45359e-06 0)
(8.42236e-30 -6.45358e-06 0)
(3.63463e-31 -6.45376e-06 0)
(1.45621e-32 -6.45382e-06 0)
(5.43948e-34 -6.44817e-06 0)
(1.90137e-35 -6.44097e-06 0)
(6.23851e-37 -6.59706e-06 0)
(1.9287e-38 -6.89063e-06 0)
(5.65835e-40 -3.58575e-06 0)
(1.60885e-41 6.05304e-06 0)
(3.8987e-43 -6.71653e-05 0)
(2.79671e-44 -0.000273532 0)
(1.54544e-44 -0.000171701 0)
(7.10829e-45 -0.0001762 0)
(3.18852e-45 -0.000230443 0)
(1.41928e-45 -0.000232147 0)
(6.27991e-46 -0.000228694 0)
(2.75586e-46 -0.000228259 0)
(1.20124e-46 -0.000228518 0)
(5.19106e-47 -0.000228565 0)
(2.22353e-47 -0.000228548 0)
(9.35816e-48 -0.000228518 0)
(3.6927e-48 -0.000228482 0)
(9.18062e-49 -0.000228046 0)
)
;

boundaryField
{
    inlet
    {
        type            cyclic;
    }
    outlet
    {
        type            cyclic;
    }
    top
    {
        type            fixedValue;
        value           uniform (0 0 0);
    }
    bottom
    {
        type            fixedValue;
        value           uniform (0 0 0);
    }
    frontAndBackPlanes
    {
        type            empty;
    }
}


// ************************************************************************* //
