/*--------------------------------*- C++ -*----------------------------------*\
| =========                 |                                                 |
| \\      /  F ield         | OpenFOAM: The Open Source CFD Toolbox           |
|  \\    /   O peration     | Version:  v2006                                 |
|   \\  /    A nd           | Website:  www.openfoam.com                      |
|    \\/     M anipulation  |                                                 |
\*---------------------------------------------------------------------------*/
FoamFile
{
    version     2.0;
    format      ascii;
    class       volVectorField;
    location    "20";
    object      Ub;
}
// * * * * * * * * * * * * * * * * * * * * * * * * * * * * * * * * * * * * * //

dimensions      [0 1 -1 0 0 0 0];


internalField   nonuniform List<vector> 
120
(
(4.28028e-21 -5.93227e-08 0)
(1.35339e-20 3.61963e-06 0)
(7.65494e-19 3.66887e-06 0)
(2.09983e-19 6.97171e-06 0)
(1.11929e-19 6.49588e-06 0)
(3.9401e-19 6.46048e-06 0)
(1.49679e-18 6.455e-06 0)
(-1.29696e-21 6.45352e-06 0)
(-1.50747e-18 6.45362e-06 0)
(-4.63977e-19 6.45365e-06 0)
(-4.73839e-19 6.45365e-06 0)
(-1.5829e-18 6.45365e-06 0)
(-4.00993e-19 6.45364e-06 0)
(-7.57002e-20 6.45365e-06 0)
(-1.12359e-20 6.45364e-06 0)
(-1.36433e-21 6.45365e-06 0)
(-1.43256e-22 6.45364e-06 0)
(-6.13654e-23 6.45365e-06 0)
(-5.58417e-22 6.45364e-06 0)
(-5.45049e-21 6.45365e-06 0)
(-4.48687e-20 6.45364e-06 0)
(-3.01961e-19 6.45365e-06 0)
(-1.59582e-18 6.45364e-06 0)
(-6.26479e-18 6.45364e-06 0)
(-1.44683e-18 6.45364e-06 0)
(5.03054e-19 6.45364e-06 0)
(3.1491e-18 6.45364e-06 0)
(1.14095e-18 6.45364e-06 0)
(2.05135e-18 6.45364e-06 0)
(7.9082e-18 6.45364e-06 0)
(7.88797e-18 6.45364e-06 0)
(1.8951e-18 6.45364e-06 0)
(2.97316e-19 6.45364e-06 0)
(-2.91843e-19 6.45364e-06 0)
(-1.85445e-18 6.45364e-06 0)
(-7.61751e-18 6.45364e-06 0)
(-6.50441e-18 6.45364e-06 0)
(3.35304e-18 6.45364e-06 0)
(-2.09614e-18 6.45364e-06 0)
(9.93116e-18 6.45364e-06 0)
(-1.75933e-18 6.45364e-06 0)
(5.21923e-18 6.45364e-06 0)
(1.16916e-18 6.45364e-06 0)
(-7.22005e-19 6.45364e-06 0)
(-3.01569e-18 6.45364e-06 0)
(1.11935e-17 6.45364e-06 0)
(3.88945e-18 6.45364e-06 0)
(3.6498e-18 6.45364e-06 0)
(-1.08917e-17 6.45364e-06 0)
(-2.88507e-18 6.45364e-06 0)
(-5.63967e-19 6.45364e-06 0)
(-1.29124e-19 6.45364e-06 0)
(-3.1248e-19 6.45364e-06 0)
(-1.59851e-18 6.45364e-06 0)
(-6.27648e-18 6.45364e-06 0)
(-1.50877e-18 6.45364e-06 0)
(3.02287e-19 6.45364e-06 0)
(3.1524e-18 6.45364e-06 0)
(1.25692e-17 6.45364e-06 0)
(3.19738e-18 6.45364e-06 0)
(6.14165e-19 6.45364e-06 0)
(1.68653e-19 6.45364e-06 0)
(5.25596e-19 6.45364e-06 0)
(2.59376e-18 6.45364e-06 0)
(9.37767e-18 6.45364e-06 0)
(-9.37637e-18 6.45364e-06 0)
(-2.58172e-18 6.45364e-06 0)
(-4.24905e-19 6.45364e-06 0)
(5.25602e-19 6.45365e-06 0)
(3.18732e-18 6.45365e-06 0)
(1.25736e-17 6.45365e-06 0)
(3.19703e-18 6.45365e-06 0)
(6.04465e-19 6.45365e-06 0)
(8.97848e-20 6.45365e-06 0)
(1.09043e-20 6.45365e-06 0)
(1.11517e-21 6.45365e-06 0)
(9.82492e-23 6.45365e-06 0)
(8.60864e-24 6.45365e-06 0)
(1.56622e-23 6.45365e-06 0)
(1.96406e-22 6.45365e-06 0)
(2.23039e-21 6.45365e-06 0)
(2.18093e-20 6.45366e-06 0)
(1.79575e-19 6.45366e-06 0)
(1.20897e-18 6.45366e-06 0)
(6.3943e-18 6.45366e-06 0)
(2.5149e-17 6.45367e-06 0)
(6.39424e-18 6.45367e-06 0)
(1.20897e-18 6.45367e-06 0)
(1.79573e-19 6.45367e-06 0)
(2.18092e-20 6.45368e-06 0)
(2.23037e-21 6.45368e-06 0)
(1.96377e-22 6.45369e-06 0)
(1.51439e-23 6.45368e-06 0)
(1.03691e-24 6.45369e-06 0)
(6.37375e-26 6.45369e-06 0)
(3.5494e-27 6.4537e-06 0)
(1.80439e-28 6.4537e-06 0)
(8.42835e-30 6.45371e-06 0)
(3.63744e-31 6.45354e-06 0)
(1.45742e-32 6.45347e-06 0)
(5.44432e-34 6.45904e-06 0)
(1.90317e-35 6.46598e-06 0)
(6.24481e-37 6.31086e-06 0)
(1.93075e-38 6.02363e-06 0)
(5.66471e-40 9.32883e-06 0)
(1.61069e-41 1.88745e-05 0)
(3.90356e-43 -5.53377e-05 0)
(2.79937e-44 -0.000239177 0)
(1.54531e-44 2.16943e-05 0)
(7.099e-45 4.53418e-05 0)
(3.18555e-45 2.67891e-07 0)
(1.41922e-45 -3.53251e-06 0)
(6.27708e-46 -1.60764e-07 0)
(2.75585e-46 2.74311e-07 0)
(1.20081e-46 2.59904e-08 0)
(5.19116e-47 -1.93993e-08 0)
(2.22333e-47 -2.27951e-09 0)
(9.35994e-48 1.74374e-09 0)
(3.69374e-48 4.47553e-10 0)
(9.1835e-49 5.95604e-11 0)
)
;

boundaryField
{
    inlet
    {
        type            cyclic;
    }
    outlet
    {
        type            cyclic;
    }
    top
    {
        type            fixedValue;
        value           uniform (0 0 0);
    }
    bottom
    {
        type            fixedValue;
        value           uniform (0 0 0);
    }
    frontAndBackPlanes
    {
        type            empty;
    }
}


// ************************************************************************* //
