/*--------------------------------*- C++ -*----------------------------------*\
| =========                 |                                                 |
| \\      /  F ield         | OpenFOAM: The Open Source CFD Toolbox           |
|  \\    /   O peration     | Version:  2206                                  |
|   \\  /    A nd           | Website:  www.openfoam.com                      |
|    \\/     M anipulation  |                                                 |
\*---------------------------------------------------------------------------*/
FoamFile
{
    version     2.0;
    format      ascii;
    arch        "LSB;label=32;scalar=64";
    class       volScalarField;
    location    "1260";
    object      nuFra;
}
// * * * * * * * * * * * * * * * * * * * * * * * * * * * * * * * * * * * * * //

dimensions      [0 2 -1 0 0 0 0];

internalField   nonuniform List<scalar> 
120
(
1
1
1
1
1
1
1
1
1
1
1
1
1
1
1
1
1
1
1
1
1
1
1
1
1
1
1
1
1
1
1
1
1
1
1
1
1
1
1
1
1
1
1
1
1
1
1
1
1
1
1
1
1
1
1
1
1
1
1
1
1
1
1
1
1
1
1
1
1
1
1
1
1
1
1
1
1
1
1
1
1
0.934906
0.831764
1
9.79354e-09
9.60926e-08
1.20843e-08
1.58562e-07
1.58712e-08
2.68424e-08
5.94615e-10
1.20347e-09
1.28118e-09
3.86371e-08
2.08359e-08
2.2935e-08
1.06473e-08
1.58561e-08
3.49735e-08
5.44598e-08
6.98126e-08
8.64376e-08
1.2578e-07
2.2081e-07
4.22421e-07
8.01471e-07
1.52786e-06
3.18696e-06
7.86702e-06
2.34509e-05
7.58647e-05
0.00019135
0.000288542
0.000297603
0.000212974
7.89484e-05
1.39773e-05
1.34516e-06
6.11691e-08
4.76614e-10
)
;

boundaryField
{
    inlet
    {
        type            cyclic;
    }
    outlet
    {
        type            cyclic;
    }
    top
    {
        type            calculated;
        value           uniform 2.401e-10;
    }
    bottom
    {
        type            calculated;
        value           uniform 1;
    }
    frontAndBackPlanes
    {
        type            empty;
    }
}


// ************************************************************************* //
