/*--------------------------------*- C++ -*----------------------------------*\
| =========                 |                                                 |
| \\      /  F ield         | OpenFOAM: The Open Source CFD Toolbox           |
|  \\    /   O peration     | Version:  2206                                  |
|   \\  /    A nd           | Website:  www.openfoam.com                      |
|    \\/     M anipulation  |                                                 |
\*---------------------------------------------------------------------------*/
FoamFile
{
    version     2.0;
    format      ascii;
    arch        "LSB;label=32;scalar=64";
    class       volScalarField;
    location    "1260";
    object      pff;
}
// * * * * * * * * * * * * * * * * * * * * * * * * * * * * * * * * * * * * * //

dimensions      [1 -1 -2 0 0 0 0];

internalField   nonuniform List<scalar> 
120
(
22.3444
21.8105
21.8136
21.2353
21.2225
20.6567
20.6325
20.0803
20.0438
19.5059
19.4564
18.9338
18.8705
18.3637
18.2862
17.7956
17.7036
17.2297
17.1229
16.6657
16.5442
16.1037
15.9677
15.5436
15.3934
14.9855
14.8215
14.4294
14.2523
13.8752
13.6857
13.3229
13.1219
12.7726
12.5612
12.2243
12.0035
11.6781
11.449
11.134
10.8978
10.5923
10.35
10.0529
9.80583
9.51612
9.26525
8.98203
8.72838
8.45081
8.19532
7.92264
7.66614
7.39772
7.14093
6.87626
6.61983
6.35852
6.10302
5.8448
5.59072
5.33545
5.0832
4.83079
4.58069
4.33106
4.0833
3.83636
3.59104
3.34665
3.10375
2.86183
2.62138
2.38199
2.144
1.90704
1.67138
1.4351
1.19225
0.949453
0.732152
0.539504
0.348728
0.222422
5.17776e-07
0
0
0
0
0
0
0
0
0
0
0
0
0
0
0
0
0
0
0
0
0
0
0
0
0
0
0
0
0
0
0
0
0
0
0
)
;

boundaryField
{
    inlet
    {
        type            cyclic;
    }
    outlet
    {
        type            cyclic;
    }
    top
    {
        type            calculated;
        value           uniform 0;
    }
    bottom
    {
        type            calculated;
        value           uniform 22.3444;
    }
    frontAndBackPlanes
    {
        type            empty;
    }
}


// ************************************************************************* //
