/*--------------------------------*- C++ -*----------------------------------*\
| =========                 |                                                 |
| \\      /  F ield         | OpenFOAM: The Open Source CFD Toolbox           |
|  \\    /   O peration     | Version:  2206                                  |
|   \\  /    A nd           | Website:  www.openfoam.com                      |
|    \\/     M anipulation  |                                                 |
\*---------------------------------------------------------------------------*/
FoamFile
{
    version     2.0;
    format      ascii;
    arch        "LSB;label=32;scalar=64";
    class       surfaceScalarField;
    location    "1260";
    object      phi.b;
}
// * * * * * * * * * * * * * * * * * * * * * * * * * * * * * * * * * * * * * //

dimensions      [0 3 -1 0 0 0 0];

oriented        oriented;

internalField   nonuniform List<scalar> 
119
(
1.42387e-15
2.88153e-15
4.3401e-15
5.83536e-15
7.33427e-15
8.86914e-15
1.04104e-14
1.19867e-14
1.35726e-14
1.51926e-14
1.68254e-14
1.84914e-14
2.01737e-14
2.18881e-14
2.36228e-14
2.53885e-14
2.71788e-14
2.8999e-14
3.0848e-14
3.2726e-14
3.46374e-14
3.65771e-14
3.85546e-14
4.05599e-14
4.26076e-14
4.46829e-14
4.68053e-14
4.89554e-14
5.1157e-14
5.3387e-14
5.56733e-14
5.79892e-14
6.03659e-14
6.27745e-14
6.52487e-14
6.77576e-14
7.03372e-14
7.29555e-14
7.56497e-14
7.83876e-14
8.12068e-14
8.40759e-14
8.7032e-14
9.00449e-14
9.31508e-14
9.63214e-14
9.95908e-14
1.02934e-13
1.06382e-13
1.09913e-13
1.13557e-13
1.17296e-13
1.21157e-13
1.25127e-13
1.29232e-13
1.33465e-13
1.37852e-13
1.42391e-13
1.47108e-13
1.52008e-13
1.57116e-13
1.62442e-13
1.6801e-13
1.73831e-13
1.79929e-13
1.86315e-13
1.93012e-13
2.00037e-13
2.07423e-13
2.15209e-13
2.23462e-13
2.32281e-13
2.41814e-13
2.52272e-13
2.63953e-13
2.77236e-13
2.92632e-13
3.1113e-13
3.34146e-13
3.61564e-13
3.90833e-13
4.19259e-13
4.38578e-13
4.52015e-13
1.48008e-12
1.93449e-12
2.13373e-12
2.2359e-12
2.28578e-12
2.30658e-12
2.71169e-12
9.31566e-12
1.20024e-13
7.49215e-16
4.68734e-17
1.58808e-18
-6.81267e-20
3.28828e-19
6.10081e-19
4.43964e-19
-1.78661e-20
-3.68585e-19
-2.96241e-19
-3.47322e-19
-3.13761e-20
1.0459e-20
2.27936e-19
4.72101e-19
1.1914e-19
9.54018e-20
-3.00885e-19
-5.22606e-19
-3.04842e-19
-3.44195e-21
3.8919e-19
3.03871e-19
2.35224e-19
1.60083e-20
-2.01555e-19
)
;

boundaryField
{
    inlet
    {
        type            cyclic;
        value           nonuniform List<scalar> 
120
(
-2.50695e-27
-7.52597e-27
-1.25604e-26
-1.76075e-26
-2.26858e-26
-2.78001e-26
-3.29773e-26
-3.81676e-26
-4.3412e-26
-4.87765e-26
-5.41925e-26
-5.9659e-26
-6.52908e-26
-7.09906e-26
-7.68022e-26
-8.27347e-26
-8.87973e-26
-9.49995e-26
-1.01351e-25
-1.07861e-25
-1.14539e-25
-1.21397e-25
-1.28441e-25
-1.35372e-25
-1.4315e-25
-1.50836e-25
-1.58933e-25
-1.66902e-25
-1.75306e-25
-1.84391e-25
-1.93338e-25
-2.02104e-25
-2.116e-25
-2.21405e-25
-2.31528e-25
-2.41433e-25
-2.5197e-25
-2.63999e-25
-2.74099e-25
-2.87556e-25
-2.97689e-25
-3.11376e-25
-3.23502e-25
-3.36687e-25
-3.49576e-25
-3.6588e-25
-3.78837e-25
-3.94543e-25
-4.07413e-25
-4.24943e-25
-4.41293e-25
-4.58126e-25
-4.75461e-25
-4.93304e-25
-5.10661e-25
-5.30618e-25
-5.50117e-25
-5.7019e-25
-5.93164e-25
-6.122e-25
-6.34169e-25
-6.56817e-25
-6.80168e-25
-7.04276e-25
-7.31988e-25
-7.51879e-25
-7.81449e-25
-8.09081e-25
-8.37738e-25
-8.67513e-25
-9.01967e-25
-9.3053e-25
-9.63977e-25
-9.99035e-25
-1.03607e-24
-1.07567e-24
-1.11867e-24
-1.166e-24
-1.2185e-24
-1.2766e-24
-1.33989e-24
-1.40785e-24
-1.47417e-24
-1.51541e-24
-1.73718e-24
-3.85354e-23
-3.56487e-23
-2.98841e-23
-2.50732e-23
-2.14907e-23
-1.89968e-23
-1.75015e-23
-1.71351e-23
-1.63421e-23
-1.55724e-23
-1.48265e-23
-1.41006e-23
-1.33921e-23
-1.26991e-23
-1.20203e-23
-1.13545e-23
-1.07008e-23
-1.00585e-23
-9.42671e-24
-8.80487e-24
-8.19231e-24
-7.58848e-24
-6.99279e-24
-6.40469e-24
-5.82364e-24
-5.24906e-24
-4.68038e-24
-4.11703e-24
-3.55841e-24
-3.00391e-24
-2.45291e-24
-1.90481e-24
-1.35895e-24
-8.14705e-25
-2.71429e-25
)
;
    }
    outlet
    {
        type            cyclic;
        value           nonuniform List<scalar> 
120
(
2.50695e-27
7.52597e-27
1.25604e-26
1.76075e-26
2.26858e-26
2.78001e-26
3.29773e-26
3.81676e-26
4.3412e-26
4.87765e-26
5.41925e-26
5.9659e-26
6.52908e-26
7.09906e-26
7.68022e-26
8.27347e-26
8.87973e-26
9.49995e-26
1.01351e-25
1.07861e-25
1.14539e-25
1.21397e-25
1.28441e-25
1.35372e-25
1.4315e-25
1.50836e-25
1.58933e-25
1.66902e-25
1.75306e-25
1.84391e-25
1.93338e-25
2.02104e-25
2.116e-25
2.21405e-25
2.31528e-25
2.41433e-25
2.5197e-25
2.63999e-25
2.74099e-25
2.87556e-25
2.97689e-25
3.11376e-25
3.23502e-25
3.36687e-25
3.49576e-25
3.6588e-25
3.78837e-25
3.94543e-25
4.07413e-25
4.24943e-25
4.41293e-25
4.58126e-25
4.75461e-25
4.93304e-25
5.10661e-25
5.30618e-25
5.50117e-25
5.7019e-25
5.93164e-25
6.122e-25
6.34169e-25
6.56817e-25
6.80168e-25
7.04276e-25
7.31988e-25
7.51879e-25
7.81449e-25
8.09081e-25
8.37738e-25
8.67513e-25
9.01967e-25
9.3053e-25
9.63977e-25
9.99035e-25
1.03607e-24
1.07567e-24
1.11867e-24
1.166e-24
1.2185e-24
1.2766e-24
1.33989e-24
1.40785e-24
1.47417e-24
1.51541e-24
1.73718e-24
3.85354e-23
3.56487e-23
2.98841e-23
2.50732e-23
2.14907e-23
1.89968e-23
1.75015e-23
1.71351e-23
1.63421e-23
1.55724e-23
1.48265e-23
1.41006e-23
1.33921e-23
1.26991e-23
1.20203e-23
1.13545e-23
1.07008e-23
1.00585e-23
9.42671e-24
8.80487e-24
8.19231e-24
7.58848e-24
6.99279e-24
6.40469e-24
5.82364e-24
5.24906e-24
4.68038e-24
4.11703e-24
3.55841e-24
3.00391e-24
2.45291e-24
1.90481e-24
1.35895e-24
8.14705e-25
2.71429e-25
)
;
    }
    top
    {
        type            fixedValue;
        value           uniform 0;
    }
    bottom
    {
        type            fixedValue;
        value           uniform 0;
    }
    frontAndBackPlanes
    {
        type            empty;
        value           nonuniform List<scalar> 0();
    }
}


// ************************************************************************* //
