/*--------------------------------*- C++ -*----------------------------------*\
| =========                 |                                                 |
| \\      /  F ield         | OpenFOAM: The Open Source CFD Toolbox           |
|  \\    /   O peration     | Version:  2206                                  |
|   \\  /    A nd           | Website:  www.openfoam.com                      |
|    \\/     M anipulation  |                                                 |
\*---------------------------------------------------------------------------*/
FoamFile
{
    version     2.0;
    format      ascii;
    arch        "LSB;label=32;scalar=64";
    class       surfaceScalarField;
    location    "1260";
    object      phi.a;
}
// * * * * * * * * * * * * * * * * * * * * * * * * * * * * * * * * * * * * * //

dimensions      [0 3 -1 0 0 0 0];

oriented        oriented;

internalField   nonuniform List<scalar> 
119
(
-9.51753e-16
-1.92647e-15
-2.90224e-15
-3.90302e-15
-4.90673e-15
-5.93503e-15
-6.96811e-15
-8.02526e-15
-9.08925e-15
-1.01767e-14
-1.12733e-14
-1.23928e-14
-1.35238e-14
-1.46771e-14
-1.58446e-14
-1.70337e-14
-1.82398e-14
-1.9467e-14
-2.07141e-14
-2.19817e-14
-2.32724e-14
-2.45831e-14
-2.59201e-14
-2.72768e-14
-2.86629e-14
-3.00688e-14
-3.15072e-14
-3.29656e-14
-3.44597e-14
-3.59744e-14
-3.7528e-14
-3.91032e-14
-4.07206e-14
-4.23612e-14
-4.40474e-14
-4.57589e-14
-4.75195e-14
-4.93084e-14
-5.11502e-14
-5.30237e-14
-5.49542e-14
-5.69208e-14
-5.89484e-14
-6.10172e-14
-6.31514e-14
-6.53324e-14
-6.75832e-14
-6.98872e-14
-7.22657e-14
-7.47045e-14
-7.72236e-14
-7.98112e-14
-8.24861e-14
-8.52402e-14
-8.80912e-14
-9.1035e-14
-9.40892e-14
-9.72539e-14
-1.00547e-13
-1.03972e-13
-1.07548e-13
-1.11282e-13
-1.15192e-13
-1.19287e-13
-1.23583e-13
-1.28091e-13
-1.32828e-13
-1.37808e-13
-1.43056e-13
-1.48602e-13
-1.54497e-13
-1.60814e-13
-1.6766e-13
-1.75192e-13
-1.83626e-13
-1.93243e-13
-2.04425e-13
-2.17908e-13
-2.34753e-13
-2.54924e-13
-2.7667e-13
-2.98293e-13
-3.1383e-13
-3.32431e-13
-1.19339e-12
-1.73499e-12
-2.02562e-12
-2.17713e-12
-2.26088e-12
-2.39239e-12
-3.24703e-12
-3.37617e-11
-7.2163e-11
-6.65321e-11
-7.0433e-11
-7.29331e-11
-7.59594e-11
-7.85246e-11
-7.96931e-11
-8.03954e-11
-8.09473e-11
-8.13867e-11
-8.16912e-11
-8.18672e-11
-8.19596e-11
-8.20081e-11
-8.20333e-11
-8.20454e-11
-8.20503e-11
-8.20519e-11
-8.20524e-11
-8.20526e-11
-8.20526e-11
-8.20526e-11
-8.20525e-11
-8.2052e-11
-8.20492e-11
-8.20204e-11
-8.13863e-11
)
;

boundaryField
{
    inlet
    {
        type            cyclic;
        value           nonuniform List<scalar> 
120
(
-2.50695e-27
-7.52596e-27
-1.25568e-26
-1.76074e-26
-2.26858e-26
-2.78e-26
-3.29581e-26
-3.81677e-26
-4.34375e-26
-4.87766e-26
-5.41927e-26
-5.96942e-26
-6.5291e-26
-7.09906e-26
-7.68022e-26
-8.27347e-26
-8.87973e-26
-9.49995e-26
-1.01351e-25
-1.07861e-25
-1.14539e-25
-1.21397e-25
-1.28443e-25
-1.35688e-25
-1.43152e-25
-1.50835e-25
-1.5875e-25
-1.66901e-25
-1.75305e-25
-1.83971e-25
-1.929e-25
-2.02102e-25
-2.116e-25
-2.21405e-25
-2.31531e-25
-2.41968e-25
-2.52523e-25
-2.63431e-25
-2.74686e-25
-2.86328e-25
-2.98319e-25
-3.10717e-25
-3.23499e-25
-3.3669e-25
-3.50303e-25
-3.64365e-25
-3.78827e-25
-3.93738e-25
-4.09088e-25
-4.24951e-25
-4.41293e-25
-4.58126e-25
-4.75461e-25
-4.93308e-25
-5.11682e-25
-5.30623e-25
-5.50117e-25
-5.7018e-25
-5.90836e-25
-6.12189e-25
-6.34169e-25
-6.56817e-25
-6.80168e-25
-7.04263e-25
-7.29152e-25
-7.54816e-25
-7.81463e-25
-8.09081e-25
-8.37738e-25
-8.67497e-25
-8.98424e-25
-9.30513e-25
-9.63977e-25
-9.99036e-25
-1.03607e-24
-1.07567e-24
-1.11867e-24
-1.166e-24
-1.2185e-24
-1.2766e-24
-1.33988e-24
-1.40782e-24
-1.47417e-24
-1.51432e-24
-1.52937e-24
-3.86075e-23
-3.56488e-23
-2.98841e-23
-2.50732e-23
-2.14907e-23
-1.89967e-23
-1.75014e-23
-1.71312e-23
-1.63586e-23
-1.5753e-23
-1.44335e-23
-1.20658e-23
-8.77502e-24
-6.89377e-24
-5.50908e-24
-4.18424e-24
-2.87396e-24
-1.75954e-24
-1.01859e-24
-5.97511e-25
-3.63945e-25
-2.33126e-25
-1.6424e-25
-1.3329e-25
-1.2199e-25
-1.1841e-25
-1.17158e-25
-1.16582e-25
-1.16265e-25
-1.16082e-25
-1.15989e-25
-1.1598e-25
-1.16177e-25
-1.17266e-25
-1.2034e-25
)
;
    }
    outlet
    {
        type            cyclic;
        value           nonuniform List<scalar> 
120
(
2.50695e-27
7.52596e-27
1.25568e-26
1.76074e-26
2.26858e-26
2.78e-26
3.29581e-26
3.81677e-26
4.34375e-26
4.87766e-26
5.41927e-26
5.96942e-26
6.5291e-26
7.09906e-26
7.68022e-26
8.27347e-26
8.87973e-26
9.49995e-26
1.01351e-25
1.07861e-25
1.14539e-25
1.21397e-25
1.28443e-25
1.35688e-25
1.43152e-25
1.50835e-25
1.5875e-25
1.66901e-25
1.75305e-25
1.83971e-25
1.929e-25
2.02102e-25
2.116e-25
2.21405e-25
2.31531e-25
2.41968e-25
2.52523e-25
2.63431e-25
2.74686e-25
2.86328e-25
2.98319e-25
3.10717e-25
3.23499e-25
3.3669e-25
3.50303e-25
3.64365e-25
3.78827e-25
3.93738e-25
4.09088e-25
4.24951e-25
4.41293e-25
4.58126e-25
4.75461e-25
4.93308e-25
5.11682e-25
5.30623e-25
5.50117e-25
5.7018e-25
5.90836e-25
6.12189e-25
6.34169e-25
6.56817e-25
6.80168e-25
7.04263e-25
7.29152e-25
7.54816e-25
7.81463e-25
8.09081e-25
8.37738e-25
8.67497e-25
8.98424e-25
9.30513e-25
9.63977e-25
9.99036e-25
1.03607e-24
1.07567e-24
1.11867e-24
1.166e-24
1.2185e-24
1.2766e-24
1.33988e-24
1.40782e-24
1.47417e-24
1.51432e-24
1.52937e-24
3.86075e-23
3.56488e-23
2.98841e-23
2.50732e-23
2.14907e-23
1.89967e-23
1.75014e-23
1.71312e-23
1.63586e-23
1.5753e-23
1.44335e-23
1.20658e-23
8.77502e-24
6.89377e-24
5.50908e-24
4.18424e-24
2.87396e-24
1.75954e-24
1.01859e-24
5.97511e-25
3.63945e-25
2.33126e-25
1.6424e-25
1.3329e-25
1.2199e-25
1.1841e-25
1.17158e-25
1.16582e-25
1.16265e-25
1.16082e-25
1.15989e-25
1.1598e-25
1.16177e-25
1.17266e-25
1.2034e-25
)
;
    }
    top
    {
        type            fixedValue;
        value           uniform 0;
    }
    bottom
    {
        type            fixedValue;
        value           uniform 0;
    }
    frontAndBackPlanes
    {
        type            empty;
        value           nonuniform List<scalar> 0();
    }
}


// ************************************************************************* //
