/*--------------------------------*- C++ -*----------------------------------*\
| =========                 |                                                 |
| \\      /  F ield         | OpenFOAM: The Open Source CFD Toolbox           |
|  \\    /   O peration     | Version:  2206                                  |
|   \\  /    A nd           | Website:  www.openfoam.com                      |
|    \\/     M anipulation  |                                                 |
\*---------------------------------------------------------------------------*/
FoamFile
{
    version     2.0;
    format      ascii;
    arch        "LSB;label=32;scalar=64";
    class       volVectorField;
    location    "1260";
    object      U.a;
}
// * * * * * * * * * * * * * * * * * * * * * * * * * * * * * * * * * * * * * //

dimensions      [0 1 -1 0 0 0 0];

internalField   nonuniform List<vector> 
120
(
(8.35651e-21 1.43481e-08 0)
(2.50865e-20 -3.67995e-09 0)
(4.18562e-20 -7.02263e-09 0)
(5.86915e-20 -9.10041e-09 0)
(7.56195e-20 -1.2583e-08 0)
(9.26668e-20 -1.4676e-08 0)
(1.0986e-19 -1.82963e-08 0)
(1.27226e-19 -2.04148e-08 0)
(1.44792e-19 -2.41699e-08 0)
(1.62589e-19 -2.63254e-08 0)
(1.80642e-19 -3.02119e-08 0)
(1.98981e-19 -3.24172e-08 0)
(2.17637e-19 -3.64314e-08 0)
(2.36635e-19 -3.87005e-08 0)
(2.56007e-19 -4.28386e-08 0)
(2.75782e-19 -4.51864e-08 0)
(2.95991e-19 -4.94447e-08 0)
(3.16665e-19 -5.18871e-08 0)
(3.37836e-19 -5.62621e-08 0)
(3.59536e-19 -5.88157e-08 0)
(3.81798e-19 -6.33044e-08 0)
(4.04656e-19 -6.59862e-08 0)
(4.28143e-19 -7.05861e-08 0)
(4.52294e-19 -7.34138e-08 0)
(4.77172e-19 -7.81233e-08 0)
(5.02785e-19 -8.11146e-08 0)
(5.29166e-19 -8.59334e-08 0)
(5.56337e-19 -8.91061e-08 0)
(5.84349e-19 -9.40351e-08 0)
(6.13236e-19 -9.74071e-08 0)
(6.42999e-19 -1.0245e-07 0)
(6.73672e-19 -1.06039e-07 0)
(7.05332e-19 -1.112e-07 0)
(7.38017e-19 -1.15025e-07 0)
(7.71769e-19 -1.20314e-07 0)
(8.0656e-19 -1.24394e-07 0)
(8.41743e-19 -1.29821e-07 0)
(8.78103e-19 -1.34176e-07 0)
(9.1562e-19 -1.39759e-07 0)
(9.54428e-19 -1.44408e-07 0)
(9.94397e-19 -1.50167e-07 0)
(1.03572e-18 -1.55134e-07 0)
(1.07833e-18 -1.61091e-07 0)
(1.1223e-18 -1.66399e-07 0)
(1.16768e-18 -1.72584e-07 0)
(1.21455e-18 -1.78256e-07 0)
(1.26276e-18 -1.847e-07 0)
(1.31246e-18 -1.90761e-07 0)
(1.36363e-18 -1.97499e-07 0)
(1.4165e-18 -2.03976e-07 0)
(1.47098e-18 -2.11048e-07 0)
(1.52709e-18 -2.17971e-07 0)
(1.58487e-18 -2.25423e-07 0)
(1.64436e-18 -2.32832e-07 0)
(1.70561e-18 -2.40723e-07 0)
(1.76874e-18 -2.48671e-07 0)
(1.83372e-18 -2.57077e-07 0)
(1.9006e-18 -2.65639e-07 0)
(1.96945e-18 -2.74658e-07 0)
(2.04063e-18 -2.83933e-07 0)
(2.1139e-18 -2.93688e-07 0)
(2.18939e-18 -3.038e-07 0)
(2.26723e-18 -3.14432e-07 0)
(2.34754e-18 -3.2552e-07 0)
(2.43051e-18 -3.3718e-07 0)
(2.51605e-18 -3.49387e-07 0)
(2.60488e-18 -3.62225e-07 0)
(2.69694e-18 -3.75702e-07 0)
(2.79246e-18 -3.89893e-07 0)
(2.89166e-18 -4.04856e-07 0)
(2.99475e-18 -4.20706e-07 0)
(3.10171e-18 -4.37603e-07 0)
(3.21326e-18 -4.55797e-07 0)
(3.33012e-18 -4.75636e-07 0)
(3.45356e-18 -4.97635e-07 0)
(3.58558e-18 -5.22486e-07 0)
(3.72889e-18 -5.51058e-07 0)
(3.88665e-18 -5.84589e-07 0)
(4.06168e-18 -6.25944e-07 0)
(4.25533e-18 -6.7818e-07 0)
(4.46627e-18 -7.38038e-07 0)
(4.69273e-18 -7.99015e-07 0)
(4.91392e-18 -8.58351e-07 0)
(5.04773e-18 -8.85627e-07 0)
(5.09792e-18 -8.86726e-07 0)
(1.28692e-16 -2.30213e-05 0)
(1.18829e-16 -3.122e-06 0)
(9.96136e-17 -5.03706e-06 0)
(8.35774e-17 -4.47029e-06 0)
(7.16356e-17 8.53677e-06 0)
(6.33225e-17 -1.3048e-05 0)
(5.83379e-17 -0.000353332 0)
(5.71041e-17 -0.000191345 0)
(5.45287e-17 -0.000168617 0)
(5.251e-17 -0.000192039 0)
(4.81116e-17 -0.000199225 0)
(4.02192e-17 -0.000206021 0)
(2.92501e-17 -0.000215988 0)
(2.29792e-17 -0.000220257 0)
(1.83636e-17 -0.000222482 0)
(1.39475e-17 -0.000224159 0)
(9.57985e-18 -0.000225548 0)
(5.86515e-18 -0.0002266 0)
(3.3953e-18 -0.00022724 0)
(1.9917e-18 -0.000227578 0)
(1.21315e-18 -0.000227754 0)
(7.77086e-19 -0.000227847 0)
(5.47465e-19 -0.000227894 0)
(4.443e-19 -0.000227914 0)
(4.06634e-19 -0.000227921 0)
(3.94701e-19 -0.000227923 0)
(3.90525e-19 -0.000227924 0)
(3.88608e-19 -0.000227924 0)
(3.87549e-19 -0.000227924 0)
(3.8694e-19 -0.000227924 0)
(3.8663e-19 -0.000227923 0)
(3.86599e-19 -0.000227921 0)
(3.87256e-19 -0.000227908 0)
(3.90886e-19 -0.000227761 0)
(4.01134e-19 -0.000224385 0)
)
;

boundaryField
{
    inlet
    {
        type            cyclic;
    }
    outlet
    {
        type            cyclic;
    }
    top
    {
        type            fixedValue;
        value           uniform (0 0 0);
    }
    bottom
    {
        type            fixedValue;
        value           uniform (0 0 0);
    }
    frontAndBackPlanes
    {
        type            empty;
    }
}


// ************************************************************************* //
