/*--------------------------------*- C++ -*----------------------------------*\
| =========                 |                                                 |
| \\      /  F ield         | OpenFOAM: The Open Source CFD Toolbox           |
|  \\    /   O peration     | Version:  2206                                  |
|   \\  /    A nd           | Website:  www.openfoam.com                      |
|    \\/     M anipulation  |                                                 |
\*---------------------------------------------------------------------------*/
FoamFile
{
    version     2.0;
    format      ascii;
    arch        "LSB;label=32;scalar=64";
    class       volVectorField;
    location    "1260";
    object      U.b;
}
// * * * * * * * * * * * * * * * * * * * * * * * * * * * * * * * * * * * * * //

dimensions      [0 1 -1 0 0 0 0];

internalField   nonuniform List<vector> 
120
(
(8.35652e-21 1.73745e-08 0)
(2.50866e-20 6.313e-09 0)
(4.18681e-20 9.69995e-09 0)
(5.86915e-20 1.44827e-08 0)
(7.56194e-20 1.79387e-08 0)
(9.2667e-20 2.28906e-08 0)
(1.09924e-19 2.63927e-08 0)
(1.27225e-19 3.15239e-08 0)
(1.44707e-19 3.50863e-08 0)
(1.62588e-19 4.03956e-08 0)
(1.80642e-19 4.40327e-08 0)
(1.98863e-19 4.95179e-08 0)
(2.17636e-19 5.32451e-08 0)
(2.36635e-19 5.89041e-08 0)
(2.56007e-19 6.27385e-08 0)
(2.75782e-19 6.85695e-08 0)
(2.95991e-19 7.25297e-08 0)
(3.16665e-19 7.8531e-08 0)
(3.37836e-19 8.26363e-08 0)
(3.59536e-19 8.88063e-08 0)
(3.81798e-19 9.30771e-08 0)
(4.04656e-19 9.94155e-08 0)
(4.28138e-19 1.03873e-07 0)
(4.5124e-19 1.1038e-07 0)
(4.77168e-19 1.15046e-07 0)
(5.02787e-19 1.21723e-07 0)
(5.29776e-19 1.26619e-07 0)
(5.5634e-19 1.33469e-07 0)
(5.84355e-19 1.38619e-07 0)
(6.14636e-19 1.45646e-07 0)
(6.44459e-19 1.51073e-07 0)
(6.73678e-19 1.58285e-07 0)
(7.05332e-19 1.64012e-07 0)
(7.38017e-19 1.71421e-07 0)
(7.71761e-19 1.77472e-07 0)
(8.04776e-19 1.85092e-07 0)
(8.39902e-19 1.91495e-07 0)
(8.79998e-19 1.99347e-07 0)
(9.13664e-19 2.0613e-07 0)
(9.58521e-19 2.14237e-07 0)
(9.92295e-19 2.21429e-07 0)
(1.03792e-18 2.29823e-07 0)
(1.07834e-18 2.37457e-07 0)
(1.12229e-18 2.46172e-07 0)
(1.16525e-18 2.54281e-07 0)
(1.2196e-18 2.63358e-07 0)
(1.26279e-18 2.71977e-07 0)
(1.31514e-18 2.81458e-07 0)
(1.35804e-18 2.90624e-07 0)
(1.41648e-18 3.00559e-07 0)
(1.47098e-18 3.10312e-07 0)
(1.52709e-18 3.20758e-07 0)
(1.58487e-18 3.31148e-07 0)
(1.64435e-18 3.42173e-07 0)
(1.7022e-18 3.53264e-07 0)
(1.76873e-18 3.64959e-07 0)
(1.83372e-18 3.76841e-07 0)
(1.90063e-18 3.89322e-07 0)
(1.97721e-18 4.02117e-07 0)
(2.04067e-18 4.15535e-07 0)
(2.1139e-18 4.29395e-07 0)
(2.18939e-18 4.4393e-07 0)
(2.26723e-18 4.59035e-07 0)
(2.34759e-18 4.74883e-07 0)
(2.43996e-18 4.91422e-07 0)
(2.50626e-18 5.08779e-07 0)
(2.60483e-18 5.26943e-07 0)
(2.69694e-18 5.46014e-07 0)
(2.79246e-18 5.66032e-07 0)
(2.89171e-18 5.87122e-07 0)
(3.00656e-18 6.09421e-07 0)
(3.10177e-18 6.33177e-07 0)
(3.21326e-18 6.58726e-07 0)
(3.33012e-18 6.86588e-07 0)
(3.45356e-18 7.17459e-07 0)
(3.58558e-18 7.52281e-07 0)
(3.72889e-18 7.92303e-07 0)
(3.88665e-18 8.39848e-07 0)
(4.06167e-18 8.98034e-07 0)
(4.25533e-18 9.67368e-07 0)
(4.4663e-18 1.04426e-06 0)
(4.69284e-18 1.12199e-06 0)
(4.91391e-18 1.18267e-06 0)
(5.05136e-18 1.20016e-06 0)
(5.79059e-18 3.27925e-06 0)
(1.28451e-16 -1.33192e-05 0)
(1.18829e-16 7.92231e-06 0)
(9.96137e-17 6.95588e-06 0)
(8.35773e-17 7.97363e-06 0)
(7.16357e-17 2.10542e-05 0)
(6.33226e-17 8.92735e-07 0)
(5.83382e-17 -0.000326612 0)
(5.71169e-17 2.33596e-05 0)
(5.44738e-17 4.6414e-05 0)
(5.19081e-17 2.79014e-06 0)
(4.94216e-17 -2.98628e-06 0)
(4.70021e-17 -6.13922e-07 0)
(4.46404e-17 1.44474e-07 0)
(4.23304e-17 6.49275e-08 0)
(4.00675e-17 -2.30836e-09 0)
(3.78482e-17 -5.1736e-09 0)
(3.56694e-17 -5.06169e-10 0)
(3.35282e-17 3.22034e-10 0)
(3.14224e-17 8.13094e-11 0)
(2.93496e-17 -1.40071e-11 0)
(2.73077e-17 -8.15443e-12 0)
(2.52949e-17 3.16722e-13 0)
(2.33093e-17 1.68692e-12 0)
(2.1349e-17 1.03407e-12 0)
(1.94121e-17 3.05106e-13 0)
(1.74969e-17 -3.56304e-13 0)
(1.56013e-17 -1.25348e-12 0)
(1.37234e-17 -1.27914e-12 0)
(1.18614e-17 -4.50809e-13 0)
(1.0013e-17 5.95943e-13 0)
(8.17638e-18 1.07867e-12 0)
(6.34936e-18 8.56164e-13 0)
(4.52983e-18 3.68648e-13 0)
(2.71568e-18 -4.35083e-13 0)
(9.04764e-19 -8.7787e-13 0)
)
;

boundaryField
{
    inlet
    {
        type            cyclic;
    }
    outlet
    {
        type            cyclic;
    }
    top
    {
        type            fixedValue;
        value           uniform (0 0 0);
    }
    bottom
    {
        type            fixedValue;
        value           uniform (0 0 0);
    }
    frontAndBackPlanes
    {
        type            empty;
    }
}


// ************************************************************************* //
