/*--------------------------------*- C++ -*----------------------------------*\
| =========                 |                                                 |
| \\      /  F ield         | OpenFOAM: The Open Source CFD Toolbox           |
|  \\    /   O peration     | Version:  2206                                  |
|   \\  /    A nd           | Website:  www.openfoam.com                      |
|    \\/     M anipulation  |                                                 |
\*---------------------------------------------------------------------------*/
FoamFile
{
    version     2.0;
    format      ascii;
    arch        "LSB;label=32;scalar=64";
    class       volScalarField;
    location    "180";
    object      alpha.a;
}
// * * * * * * * * * * * * * * * * * * * * * * * * * * * * * * * * * * * * * //

dimensions      [0 0 0 0 0 0 0];

internalField   nonuniform List<scalar> 
344
(
0.585918
0.585857
0.585812
0.585748
0.585702
0.585636
0.585589
0.585521
0.585473
0.585403
0.585353
0.585281
0.58523
0.585156
0.585104
0.585026
0.584973
0.584893
0.584838
0.584756
0.584699
0.584614
0.584556
0.584467
0.584407
0.584315
0.584252
0.584157
0.584092
0.583992
0.583926
0.583822
0.583753
0.583644
0.583572
0.583458
0.583383
0.583264
0.583186
0.58306
0.582979
0.582846
0.582761
0.582621
0.582531
0.582383
0.582288
0.582131
0.58203
0.581862
0.581756
0.581576
0.581462
0.581269
0.581146
0.580937
0.580805
0.580577
0.580433
0.580182
0.580025
0.579747
0.579573
0.579261
0.579065
0.578709
0.578487
0.578073
0.577814
0.577318
0.577006
0.57639
0.575992
0.575173
0.574616
0.573369
0.572434
0.56959
0.196518
0.000383227
2.59797e-10
2.0412e-12
1.133e-22
9.57632e-33
1.0474e-42
1.22941e-52
1.32631e-62
1.32217e-72
1.12921e-82
1.06542e-92
9.97202e-103
9.35686e-113
7.88355e-123
6.6304e-133
4.98599e-143
3.37838e-153
1.83386e-163
9.57097e-174
4.3288e-184
1.69718e-194
5.00222e-205
1.17811e-215
1.80115e-226
1.45355e-237
1.37251e-248
1.12572e-259
1.33499e-270
2.0183e-281
3.45751e-292
7.20833e-303
1.63767e-313
1.47108e-319
0
0
0
0
0
0
0
4.76449e-317
0
0
0
1.8058e-316
0
0
0
0
0
0
0
0
0
0
1.75432e-316
0
0
0
0
0
0
0
0
0
0
0
0
0
0
0
0
0
0
0
0
0
0
0
0
0
0
0
0
0
0
0
0
0
0
0
0
0
0
0
0
0
0
0
0
0
0
0
0
0
0
0
0
0
0
0
0
0
0
0
0
0
0
0
0
0
0
0
0
0
0
0
0
0
0
0
0
0
0
0
0
0
0
0
0
0
0
0
0
0
0
0
0
0
0
0
0
0
0
0
0
0
0
0
0
0
0
0
0
0
0
0
0
0
0
0
0
0
0
0
0
0
0
0
0
0
0
0
0
0
0
0
0
0
0
0
0
0
0
0
0
0
0
0
0
0
0
0
0
0
0
0
0
0
0
0
0
0
0
0
0
0
0
0
0
0
0
0
0
0
0
0
0
0
0
0
0
0
0
0
0
0
0
0
0
0
0
0
0
0
0
0
0
0
0
0
0
0
0
0
0
0
0
0
0
0
0
0
0
0
)
;

boundaryField
{
    inlet
    {
        type            cyclic;
    }
    outlet
    {
        type            cyclic;
    }
    top
    {
        type            zeroGradient;
    }
    bottom
    {
        type            zeroGradient;
    }
    frontAndBackPlanes
    {
        type            empty;
    }
}


// ************************************************************************* //
