/*--------------------------------*- C++ -*----------------------------------*\
| =========                 |                                                 |
| \\      /  F ield         | OpenFOAM: The Open Source CFD Toolbox           |
|  \\    /   O peration     | Version:  2206                                  |
|   \\  /    A nd           | Website:  www.openfoam.com                      |
|    \\/     M anipulation  |                                                 |
\*---------------------------------------------------------------------------*/
FoamFile
{
    version     2.0;
    format      ascii;
    arch        "LSB;label=32;scalar=64";
    class       volScalarField;
    location    "180";
    object      muI;
}
// * * * * * * * * * * * * * * * * * * * * * * * * * * * * * * * * * * * * * //

dimensions      [0 0 0 0 0 0 0];

internalField   nonuniform List<scalar> 
344
(
0.630001
0.630001
0.63
0.63
0.63
0.63
0.63
0.63
0.63
0.63
0.63
0.63
0.63
0.63
0.63
0.63
0.63
0.63
0.63
0.63
0.63
0.63
0.63
0.63
0.63
0.63
0.63
0.63
0.63
0.63
0.63
0.63
0.63
0.63
0.63
0.63
0.63
0.63
0.63
0.63
0.63
0.63
0.63
0.63
0.63
0.63
0.63
0.63
0.63
0.63
0.63
0.63
0.63
0.63
0.63
0.63
0.63
0.63
0.63
0.63
0.63
0.63
0.63
0.63
0.63
0.63
0.63
0.63
0.63
0.63
0.63
0.63
0.63
0.63
0.63
0.63
0.63
0.630003
1.12789
1.12675
1.08802
1.12746
1.12465
1.05705
0.970269
0.908934
0.957526
0.730107
0.706848
0.63002
0.630017
0.630005
0.630003
0.630001
0.63
0.630001
0.630002
0.630003
0.630006
0.630031
0.666154
0.866111
1.08011
1.12055
1.11881
0.630029
1.11702
1.11702
0.630006
0.630004
0.630004
0.630004
0.630004
0.630004
0.630004
0.630004
0.630004
0.630004
0.630004
0.630004
0.630004
0.630004
0.630004
0.630004
0.630006
1.11741
1.11741
0.630012
1.11744
1.11693
1.11553
1.11485
0.630006
1.11274
1.11274
0.630001
1.09085
1.09085
0.630004
1.10272
1.10093
1.11411
1.11352
0.630007
1.11412
1.11412
0.630005
0.630018
1.04957
1.04958
0.630001
1.05075
1.05075
0.630022
0.630018
0.630019
0.630015
0.630019
1.11978
1.11978
0.630013
1.11883
1.11883
0.630005
0.63003
1.11683
1.11683
0.630016
1.11806
1.1175
1.11754
1.11692
0.630016
1.11808
1.11808
0.630015
0.630029
0.630022
0.630022
0.630023
0.630022
0.630022
0.630022
0.630022
0.630022
0.630022
0.630023
0.630027
0.917761
0.917773
0.63
0.925498
0.925486
0.630027
0.630026
0.630017
1.092
1.092
0.630001
1.08446
1.08446
0.630025
0.630026
0.630015
1.11199
1.11199
0.630005
1.1118
1.1118
0.630018
0.630014
0.630015
0.630014
0.630014
1.11965
1.11965
0.630023
1.11962
1.11962
0.630017
0.630014
0.630014
0.630014
0.630015
0.630011
1.11745
1.11745
0.63001
1.11759
1.11759
0.630009
0.630007
0.630007
0.630007
0.630007
0.630007
0.630007
0.630007
0.630006
0.630007
1.11873
1.11873
0.630009
1.1172
1.1172
0.630007
1.11537
1.11537
0.630009
1.11721
1.11721
0.630017
0.630014
0.630014
0.630014
0.630014
0.630015
0.630011
1.1165
1.1165
0.630011
1.11671
1.11597
1.11821
1.11763
0.630021
1.11868
1.11872
0.982066
0.988532
0.630001
0.96466
0.964653
0.630008
0.630034
0.969402
0.969409
0.63
0.963073
0.963066
0.630018
0.630015
1.1145
1.1145
0.630006
1.11357
1.11357
0.630018
0.630015
0.630015
0.630015
0.630013
1.11825
1.11825
0.630012
1.11823
1.11823
0.630017
0.630014
0.630014
0.630019
0.630008
1.10144
1.10144
0.630003
1.10183
1.10183
0.630018
0.630015
0.630015
0.630013
1.11777
1.11777
0.630011
1.11803
1.11803
0.630004
0.630002
0.630002
0.630002
0.630002
1.1071
1.1071
0.630003
1.10605
1.10605
0.630018
0.630015
0.630015
0.630016
0.630013
1.11763
1.11763
0.630011
1.11798
1.11798
0.630003
0.630002
0.630001
0.630001
0.630001
0.630001
0.63
0.63
)
;

boundaryField
{
    inlet
    {
        type            cyclic;
    }
    outlet
    {
        type            cyclic;
    }
    top
    {
        type            calculated;
        value           uniform 0.63;
    }
    bottom
    {
        type            calculated;
        value           uniform 0.630006;
    }
    frontAndBackPlanes
    {
        type            empty;
    }
}


// ************************************************************************* //
