/*--------------------------------*- C++ -*----------------------------------*\
| =========                 |                                                 |
| \\      /  F ield         | OpenFOAM: The Open Source CFD Toolbox           |
|  \\    /   O peration     | Version:  2206                                  |
|   \\  /    A nd           | Website:  www.openfoam.com                      |
|    \\/     M anipulation  |                                                 |
\*---------------------------------------------------------------------------*/
FoamFile
{
    version     2.0;
    format      ascii;
    arch        "LSB;label=32;scalar=64";
    class       volScalarField;
    location    "180";
    object      nuFra;
}
// * * * * * * * * * * * * * * * * * * * * * * * * * * * * * * * * * * * * * //

dimensions      [0 2 -1 0 0 0 0];

internalField   nonuniform List<scalar> 
344
(
0.01
0.01
0.01
0.01
0.01
0.01
0.01
0.01
0.01
0.01
0.01
0.01
0.01
0.01
0.01
0.01
0.01
0.01
0.01
0.01
0.01
0.01
0.01
0.01
0.01
0.01
0.01
0.01
0.01
0.01
0.01
0.01
0.01
0.01
0.01
0.01
0.01
0.01
0.01
0.01
0.01
0.01
0.01
0.01
0.01
0.01
0.01
0.01
0.01
0.01
0.01
0.01
0.01
0.01
0.01
0.01
0.01
0.01
0.01
0.01
0.01
0.01
0.01
0.01
0.01
0.01
0.01
0.01
0.01
0.01
0.01
0.01
0.01
0.01
0.01
0.01
0.01
0.01
2.57516e-11
3.98089e-11
5.38019e-10
3.11216e-11
6.56922e-11
9.74221e-10
2.45754e-09
3.88681e-09
2.72062e-09
1.57364e-08
2.10007e-08
8.01535e-05
9.09013e-05
0.000196288
0.00021409
0.00022882
0.000231362
0.00023046
0.000225455
0.000212192
0.000173806
5.27238e-05
4.61139e-08
5.22299e-09
6.45937e-10
1.16479e-10
1.38132e-10
5.65925e-05
1.60612e-10
1.60617e-10
0.000180891
0.000199117
0.000199071
0.00019904
0.000199056
0.000199037
0.000199045
0.000199035
0.00019904
0.000199036
0.000199042
0.000199043
0.000199056
0.000198971
0.000198828
0.000209203
0.000184873
1.55771e-10
1.55769e-10
0.000120973
1.55331e-10
1.61725e-10
1.79369e-10
1.87945e-10
0.00018044
2.14647e-10
2.1465e-10
0.000227909
5.00008e-10
4.99998e-10
0.000201988
3.4331e-10
3.66677e-10
1.97288e-10
2.0478e-10
0.000168755
1.97222e-10
1.97224e-10
0.000195498
8.74981e-05
1.08554e-09
1.08551e-09
0.000230247
1.06785e-09
1.06788e-09
7.48028e-05
8.87803e-05
8.34524e-05
0.00010168
8.30708e-05
1.26099e-10
1.26098e-10
0.000111629
1.37966e-10
1.37968e-10
0.000194458
5.50437e-05
1.63063e-10
1.6306e-10
9.77366e-05
1.47533e-10
1.54638e-10
1.5409e-10
1.61853e-10
9.50817e-05
1.47358e-10
1.4736e-10
0.000104384
5.77106e-05
7.27128e-05
7.30735e-05
7.1489e-05
7.2092e-05
7.20038e-05
7.19871e-05
7.20061e-05
7.20006e-05
7.1951e-05
7.11679e-05
5.98226e-05
3.65229e-09
3.65197e-09
0.000231564
3.45589e-09
3.45618e-09
5.98957e-05
6.18244e-05
9.39378e-05
4.84625e-10
4.84619e-10
0.000227465
5.86287e-10
5.86297e-10
6.5228e-05
6.40081e-05
9.93637e-05
2.24155e-10
2.24153e-10
0.000193123
2.26612e-10
2.26614e-10
8.94163e-05
0.000104809
0.000102749
0.000109746
0.000109807
1.27666e-10
1.27664e-10
6.92306e-05
1.28051e-10
1.28053e-10
9.20783e-05
0.000106983
0.000107968
0.000108449
0.000102685
0.000126215
1.55259e-10
1.55257e-10
0.000137029
1.53533e-10
1.53535e-10
0.000151389
0.000170937
0.000171299
0.000171305
0.00017128
0.000171376
0.000171385
0.000168896
0.00018276
0.000164919
1.39185e-10
1.39184e-10
0.000149853
1.58324e-10
1.58326e-10
0.000172346
1.81377e-10
1.81374e-10
0.000142348
1.58265e-10
1.58267e-10
9.15536e-05
0.000106602
0.000107186
0.000107432
0.000108405
0.000100057
0.000128843
1.67134e-10
1.67132e-10
0.000128897
1.64526e-10
1.73845e-10
1.45734e-10
1.52994e-10
7.50773e-05
1.39765e-10
1.39274e-10
2.22652e-09
2.10456e-09
0.000231045
2.57152e-09
2.57167e-09
0.000156779
4.91333e-05
2.47498e-09
2.47483e-09
0.000231788
2.60427e-09
2.60443e-09
8.89652e-05
0.000102961
1.92378e-10
1.92377e-10
0.000183796
2.04188e-10
2.04191e-10
8.8037e-05
0.000102959
0.000103164
0.000101671
0.000116734
1.45265e-10
1.45263e-10
0.000123313
1.45509e-10
1.45511e-10
9.01723e-05
0.000105864
0.000108954
8.35225e-05
0.000154686
3.60014e-10
3.6001e-10
0.000216565
3.54901e-10
3.54906e-10
8.71469e-05
0.000101136
0.000100309
0.000115542
1.51193e-10
1.51192e-10
0.000126476
1.47914e-10
1.47916e-10
0.000206328
0.000220118
0.000219765
0.00021956
0.000222884
2.86769e-10
2.86766e-10
0.000210704
3.00188e-10
3.00191e-10
8.59853e-05
0.00010066
0.000101191
9.83348e-05
0.00011587
1.52985e-10
1.52983e-10
0.000127331
1.48559e-10
1.48561e-10
0.000216262
0.000227014
0.000227208
0.000228235
0.000229719
0.000231237
0.000231865
0.000231788
)
;

boundaryField
{
    inlet
    {
        type            cyclic;
    }
    outlet
    {
        type            cyclic;
    }
    top
    {
        type            calculated;
        value           uniform 0.000231873;
    }
    bottom
    {
        type            calculated;
        value           uniform 0.01;
    }
    frontAndBackPlanes
    {
        type            empty;
    }
}


// ************************************************************************* //
