/*--------------------------------*- C++ -*----------------------------------*\
| =========                 |                                                 |
| \\      /  F ield         | OpenFOAM: The Open Source CFD Toolbox           |
|  \\    /   O peration     | Version:  2206                                  |
|   \\  /    A nd           | Website:  www.openfoam.com                      |
|    \\/     M anipulation  |                                                 |
\*---------------------------------------------------------------------------*/
FoamFile
{
    version     2.0;
    format      ascii;
    arch        "LSB;label=32;scalar=64";
    class       volScalarField;
    location    "180";
    object      p_rbgh;
}
// * * * * * * * * * * * * * * * * * * * * * * * * * * * * * * * * * * * * * //

dimensions      [1 -1 -2 0 0 0 0];

internalField   nonuniform List<scalar> 
344
(
0.161902
0.168136
0.168094
0.167931
0.1677
0.167423
0.167103
0.166749
0.166367
0.165967
0.165552
0.165132
0.16471
0.164291
0.163876
0.163464
0.163054
0.162638
0.162212
0.161766
0.16129
0.160774
0.160208
0.159582
0.15889
0.158127
0.157291
0.15639
0.155428
0.154424
0.153391
0.152361
0.151354
0.150408
0.149549
0.148815
0.148231
0.147825
0.14762
0.147622
0.147847
0.148277
0.148914
0.149724
0.150689
0.151776
0.152943
0.15418
0.155421
0.156704
0.157936
0.159216
0.160432
0.161739
0.163016
0.164441
0.165905
0.167554
0.16932
0.171238
0.173321
0.175415
0.17765
0.179618
0.181592
0.182894
0.183888
0.183768
0.182771
0.180418
0.176433
0.171539
0.164937
0.159095
0.1547
0.1524
0.157491
0.165293
0.271118
-0.20135
0.117944
-0.0522951
0.0254506
-0.0209069
0.0197438
-0.0166984
0.0129366
-0.00963411
0.00710213
-0.00526602
0.00395015
-0.00299338
0.00228003
-0.00173636
0.00131707
-0.000993419
0.000745097
-0.000556379
0.000414255
-0.000308046
0.00022903
-0.000170416
0.000126922
-9.46535e-05
7.06434e-05
-5.2783e-05
3.94439e-05
-2.95034e-05
2.20567e-05
-1.65075e-05
1.23396e-05
-9.23883e-06
6.90284e-06
-5.17036e-06
3.8592e-06
-2.89092e-06
2.15282e-06
-1.61021e-06
1.19159e-06
-8.84306e-07
6.41929e-07
-4.62825e-07
3.19154e-07
-2.1762e-07
1.39713e-07
-8.85302e-08
5.18175e-08
-2.96636e-08
1.57144e-08
-7.63239e-09
4.12843e-09
-1.12678e-09
1.40445e-09
4.40266e-10
9.36539e-10
7.70119e-10
9.10723e-10
8.56578e-10
8.39137e-10
7.96344e-10
7.62411e-10
7.21023e-10
6.80763e-10
6.39606e-10
6.01027e-10
5.59268e-10
5.17016e-10
4.74133e-10
4.33225e-10
3.92172e-10
3.53361e-10
3.16669e-10
2.8371e-10
2.49979e-10
2.16857e-10
1.84215e-10
1.5384e-10
1.24287e-10
9.71434e-11
7.23649e-11
5.11525e-11
3.17479e-11
1.50279e-11
9.54785e-13
-9.84452e-12
-1.75619e-11
-2.22157e-11
-2.40058e-11
-3.05722e-11
-2.89089e-11
-2.68431e-11
-2.45699e-11
-2.26061e-11
-2.05795e-11
-1.87004e-11
-1.696e-11
-1.54542e-11
-1.39569e-11
-1.25412e-11
-1.12009e-11
-9.97392e-12
-8.82861e-12
-7.79087e-12
-6.85638e-12
-6.03486e-12
-5.26551e-12
-4.55107e-12
-3.88781e-12
-3.28184e-12
-2.72712e-12
-2.22668e-12
-1.77906e-12
-1.38568e-12
-1.04556e-12
-7.59204e-13
-5.25873e-13
-3.43149e-13
-2.15569e-13
-1.36609e-13
-1.0633e-13
4.46715e-15
-1.29238e-14
-2.99176e-14
-4.68887e-14
-5.83515e-14
-6.83547e-14
-7.57757e-14
-8.07471e-14
-8.35698e-14
-8.47678e-14
-8.46209e-14
-8.31482e-14
-8.12706e-14
-7.82829e-14
-7.50068e-14
-7.14203e-14
-6.81592e-14
-6.41776e-14
-5.99937e-14
-5.5578e-14
-5.1462e-14
-4.7223e-14
-4.33173e-14
-3.9728e-14
-3.67847e-14
-3.40643e-14
-3.18223e-14
-3.00497e-14
-2.88655e-14
-2.84426e-14
-2.84493e-14
-2.87225e-14
-2.65722e-14
-2.73156e-14
-2.8227e-14
-2.91458e-14
-2.96392e-14
-3.00016e-14
-3.01757e-14
-3.01666e-14
-3.00081e-14
-2.9742e-14
-2.93948e-14
-2.89664e-14
-2.85154e-14
-2.79985e-14
-2.74673e-14
-2.69191e-14
-2.63918e-14
-2.58245e-14
-2.5255e-14
-2.46805e-14
-2.41529e-14
-2.36278e-14
-2.31649e-14
-2.27632e-14
-2.24554e-14
-2.22586e-14
-2.22147e-14
-2.23289e-14
-2.25663e-14
-2.31752e-14
-2.37858e-14
-2.42941e-14
-2.30617e-14
-2.35689e-14
-2.41768e-14
-2.47818e-14
-2.50127e-14
-2.51189e-14
-2.50643e-14
-2.48537e-14
-2.45274e-14
-2.41062e-14
-2.36203e-14
-2.30688e-14
-2.25084e-14
-2.1897e-14
-2.12834e-14
-2.06644e-14
-2.00747e-14
-1.94555e-14
-1.88413e-14
-1.82292e-14
-1.76676e-14
-1.71149e-14
-1.66274e-14
-1.62044e-14
-1.58762e-14
-1.56632e-14
-1.56058e-14
-1.5709e-14
-1.59368e-14
-1.65381e-14
-1.71425e-14
-1.76461e-14
-1.64167e-14
-1.69236e-14
-1.75338e-14
-1.81436e-14
-1.83809e-14
-1.84969e-14
-1.84523e-14
-1.82525e-14
-1.79336e-14
-1.75256e-14
-1.70523e-14
-1.65138e-14
-1.59575e-14
-1.53509e-14
-1.47306e-14
-1.40952e-14
-1.34674e-14
-1.28162e-14
-1.21544e-14
-1.14803e-14
-1.08066e-14
-1.01231e-14
-9.43994e-15
-8.75617e-15
-8.08073e-15
-7.39732e-15
-6.71488e-15
-6.03237e-15
-5.36006e-15
-4.68753e-15
-4.02755e-15
-3.3785e-15
-2.75353e-15
-2.12078e-15
-1.50369e-15
-9.00443e-16
-3.48754e-16
1.85563e-16
6.52728e-16
1.05315e-15
1.36079e-15
1.55152e-15
1.58219e-15
1.44756e-15
1.17675e-15
5.20507e-16
-1.60297e-16
-7.56288e-16
)
;

boundaryField
{
    inlet
    {
        type            cyclic;
    }
    outlet
    {
        type            cyclic;
    }
    top
    {
        type            fixedValue;
        value           uniform 0;
    }
    bottom
    {
        type            fixedFluxPressure;
        gradient        uniform 0;
        value           uniform 0.161902;
    }
    frontAndBackPlanes
    {
        type            empty;
    }
}


// ************************************************************************* //
