/*--------------------------------*- C++ -*----------------------------------*\
| =========                 |                                                 |
| \\      /  F ield         | OpenFOAM: The Open Source CFD Toolbox           |
|  \\    /   O peration     | Version:  2206                                  |
|   \\  /    A nd           | Website:  www.openfoam.com                      |
|    \\/     M anipulation  |                                                 |
\*---------------------------------------------------------------------------*/
FoamFile
{
    version     2.0;
    format      ascii;
    arch        "LSB;label=32;scalar=64";
    class       surfaceScalarField;
    location    "180";
    object      phi.b;
}
// * * * * * * * * * * * * * * * * * * * * * * * * * * * * * * * * * * * * * //

dimensions      [0 3 -1 0 0 0 0];

oriented        oriented;

internalField   nonuniform List<scalar> 
343
(
3.97012e-16
7.94092e-16
1.16818e-15
1.52735e-15
1.83935e-15
2.12662e-15
2.35055e-15
2.54248e-15
2.66682e-15
2.76071e-15
2.79676e-15
2.81118e-15
2.79185e-15
2.76676e-15
2.74197e-15
2.73284e-15
2.76194e-15
2.82638e-15
2.96001e-15
3.14519e-15
3.414e-15
3.73689e-15
4.13158e-15
4.56935e-15
5.03674e-15
5.5163e-15
5.95565e-15
6.36325e-15
6.64567e-15
6.84196e-15
6.83428e-15
6.69043e-15
6.29465e-15
5.72464e-15
4.90909e-15
3.9099e-15
2.73615e-15
1.40095e-15
1.69004e-17
-1.46362e-15
-2.84664e-15
-4.22736e-15
-5.39873e-15
-6.44396e-15
-7.26825e-15
-7.8243e-15
-8.29826e-15
-8.35343e-15
-8.61887e-15
-8.31805e-15
-8.61529e-15
-8.23179e-15
-8.80607e-15
-8.65329e-15
-9.62052e-15
-9.93252e-15
-1.1161e-14
-1.19843e-14
-1.30338e-14
-1.41561e-14
-1.42903e-14
-1.5218e-14
-1.35129e-14
-1.34541e-14
-9.03051e-15
-6.77977e-15
7.1001e-16
6.87055e-15
1.62156e-14
2.74716e-14
3.40948e-14
4.57125e-14
4.09303e-14
3.08696e-14
1.54234e-14
-3.02294e-14
-5.78581e-15
7.8096e-13
2.32568e-10
6.54885e-13
3.80609e-19
-4.48783e-20
-6.43313e-20
-7.113e-20
-8.59023e-20
-9.01443e-20
-9.53525e-20
-9.10653e-20
-1.12249e-19
-1.21787e-19
-1.32434e-19
-1.27031e-19
-1.35586e-19
-1.27688e-19
-1.20703e-19
-1.00207e-19
-1.00011e-19
-8.90276e-20
-7.87667e-20
-5.95444e-20
-4.52715e-20
-2.74147e-20
-9.88177e-21
-2.74265e-20
1.79247e-20
2.49272e-20
3.18239e-20
3.38627e-20
4.02113e-20
4.22362e-20
4.45238e-20
4.30956e-20
4.85789e-20
5.02561e-20
5.21985e-20
5.00464e-20
5.13589e-20
4.88262e-20
4.6582e-20
4.1556e-20
4.3385e-20
4.28389e-20
4.25538e-20
3.94713e-20
3.86934e-20
3.54673e-20
3.23691e-20
2.74355e-20
2.51319e-20
2.1511e-20
1.79788e-20
1.35921e-20
9.39947e-21
5.3119e-21
1.34095e-21
1.13501e-20
-2.12235e-21
-1.45315e-21
-6.79189e-22
6.55887e-22
1.6403e-21
2.56244e-21
3.5046e-21
4.12373e-21
5.29431e-21
5.98483e-21
6.70832e-21
6.74851e-21
7.39654e-21
7.31574e-21
7.29112e-21
6.67547e-21
7.45579e-21
7.6491e-21
7.89849e-21
7.42503e-21
7.56022e-21
7.01346e-21
6.50348e-21
5.45641e-21
5.20257e-21
4.53958e-21
3.90408e-21
2.95636e-21
2.15402e-21
1.27122e-21
4.08742e-22
1.84275e-21
-6.75021e-22
-8.0005e-22
-9.11352e-22
-8.48172e-22
-9.26621e-22
-9.03663e-22
-8.8547e-22
-8.03769e-22
-8.49751e-22
-8.40349e-22
-8.3483e-22
-7.82727e-22
-7.69138e-22
-7.15895e-22
-6.65798e-22
-5.90306e-22
-5.88087e-22
-5.66578e-22
-5.47777e-22
-5.05818e-22
-4.82884e-22
-4.40713e-22
-3.99547e-22
-3.44286e-22
-3.09343e-22
-2.64405e-22
-2.20142e-22
-1.69821e-22
-1.2028e-22
-7.24415e-23
-2.56951e-23
-1.04473e-22
2.4882e-23
2.70317e-23
2.82136e-23
2.29253e-23
2.25791e-23
1.99775e-23
1.74317e-23
1.43054e-23
1.32063e-23
1.17546e-23
1.03239e-23
9.17123e-24
7.79396e-24
6.75791e-24
5.71157e-24
5.04371e-24
4.0831e-24
3.49161e-24
2.88942e-24
2.62431e-24
2.09162e-24
1.86494e-24
1.62431e-24
1.62747e-24
1.30921e-24
1.15732e-24
9.9928e-25
9.2685e-25
8.71663e-25
6.97344e-25
5.76721e-25
2.67244e-24
4.9737e-25
5.0643e-25
5.7144e-25
4.30277e-25
4.06153e-25
3.23189e-25
2.45597e-25
1.6437e-25
9.64212e-26
5.21868e-26
8.77793e-27
-5.65704e-27
-4.50642e-26
-4.95212e-26
-5.60116e-26
-2.11477e-26
-6.59043e-26
-6.84115e-26
-7.30196e-26
-4.01112e-26
-3.52967e-26
3.04103e-27
4.17652e-26
1.09057e-25
1.78214e-25
2.51605e-25
3.29693e-25
3.58736e-25
4.97668e-25
4.38604e-25
4.31721e-25
2.42834e-24
4.28986e-25
4.33018e-25
4.89239e-25
3.47184e-25
3.153e-25
2.3397e-25
1.5736e-25
8.46412e-26
1.42907e-26
-2.78228e-26
-6.95307e-26
-7.79917e-26
-1.14548e-25
-1.13494e-25
-1.14648e-25
-7.31608e-26
-1.14932e-25
-1.14057e-25
-1.1539e-25
-7.90936e-26
-7.09206e-26
-2.94638e-26
1.23917e-26
8.2564e-26
1.54818e-25
2.31083e-25
3.12057e-25
3.43845e-25
4.85356e-25
4.2915e-25
4.25152e-25
2.43182e-24
4.30201e-25
4.38315e-25
4.98708e-25
3.58711e-25
3.31675e-25
2.50705e-25
1.74861e-25
9.70076e-26
3.40886e-26
-9.08683e-27
-5.12788e-26
-7.16118e-26
-1.09418e-25
-1.22876e-25
-1.37619e-25
-1.27804e-25
-1.61416e-25
-1.76036e-25
-1.91686e-25
-1.93328e-25
-2.06738e-25
-2.07336e-25
-2.08727e-25
-1.98694e-25
-2.0939e-25
-2.08555e-25
-2.08523e-25
-1.95353e-25
-1.94373e-25
-1.78775e-25
-1.64277e-25
-1.29975e-25
-1.41252e-25
-1.26685e-25
-1.13507e-25
-7.40081e-26
-5.40153e-26
-9.39255e-27
3.6034e-26
1.03533e-25
1.82887e-25
2.64274e-25
3.50582e-25
3.86681e-25
5.38856e-25
4.89237e-25
4.92043e-25
)
;

boundaryField
{
    inlet
    {
        type            cyclic;
        value           nonuniform List<scalar> 
344
(
1.00598e-23
2.24895e-23
3.48836e-23
4.72141e-23
5.94325e-23
6.44315e-23
6.93333e-23
7.42202e-23
7.93547e-23
7.70086e-23
7.49208e-23
7.28763e-23
7.08677e-23
6.88928e-23
6.69497e-23
6.50401e-23
6.31683e-23
6.13383e-23
5.95572e-23
5.78307e-23
5.61635e-23
5.45587e-23
5.30226e-23
5.1555e-23
5.01592e-23
4.88372e-23
4.75907e-23
4.64212e-23
4.53299e-23
4.43181e-23
4.33867e-23
4.25366e-23
4.17685e-23
4.10833e-23
4.04812e-23
3.99628e-23
3.95274e-23
3.91784e-23
3.89125e-23
3.87306e-23
3.86327e-23
3.86183e-23
3.86873e-23
3.88404e-23
3.90746e-23
3.93906e-23
3.97884e-23
4.02668e-23
4.08298e-23
4.14937e-23
4.22904e-23
4.31373e-23
4.12324e-23
3.93728e-23
3.76463e-23
3.60151e-23
3.44623e-23
3.29827e-23
3.15753e-23
3.02396e-23
2.89734e-23
2.77811e-23
2.66558e-23
2.56024e-23
2.46146e-23
2.36956e-23
2.28441e-23
2.20595e-23
2.13413e-23
2.06894e-23
2.01013e-23
1.95804e-23
1.91251e-23
1.87335e-23
1.84066e-23
1.81446e-23
1.79476e-23
1.78191e-23
1.79812e-23
1.65423e-23
1.29011e-23
1.01462e-23
1.1555e-23
6.1927e-24
8.05992e-25
-1.37687e-23
-1.48593e-23
-1.59122e-23
-1.69138e-23
-2.35482e-23
-2.16679e-23
-1.98455e-23
-1.56505e-23
-1.14611e-23
-1.00059e-23
-8.55626e-24
-7.14002e-24
-6.90772e-24
-6.72026e-24
-5.9539e-24
-5.24518e-24
-4.5881e-24
-3.98246e-24
-3.42776e-24
-2.92247e-24
-2.46425e-24
-2.05037e-24
-1.67798e-24
-1.34401e-24
-1.11463e-24
-9.17173e-25
-7.4835e-25
-6.04904e-25
-4.83853e-25
-3.82462e-25
-2.98207e-25
-2.28771e-25
-1.7205e-25
-1.26161e-25
-9.33248e-26
-6.50942e-26
-4.31252e-26
-2.62904e-26
-1.36184e-26
-4.28114e-27
2.41846e-27
7.05703e-27
9.78949e-27
1.13326e-26
1.20026e-26
1.19138e-26
1.13996e-26
1.06472e-26
9.73685e-27
8.75287e-27
7.75589e-27
6.788e-27
5.87688e-27
5.03923e-27
4.28357e-27
3.61246e-27
3.02436e-27
2.51491e-27
2.07811e-27
1.70702e-27
1.39436e-27
1.13293e-27
9.15891e-28
7.36873e-28
5.90121e-28
4.70514e-28
3.73562e-28
2.95375e-28
2.32638e-28
1.8253e-28
1.42686e-28
1.11144e-28
8.62757e-29
6.67449e-29
5.14669e-29
3.95595e-29
3.03108e-29
2.31521e-29
1.76319e-29
1.33871e-29
1.01343e-29
7.64958e-30
5.75736e-30
4.32076e-30
3.23336e-30
2.41271e-30
1.79532e-30
1.33236e-30
9.85825e-31
7.27729e-31
5.35585e-31
3.93292e-31
2.881e-31
2.10661e-31
1.53845e-31
1.12221e-31
8.1823e-32
5.96554e-32
4.35485e-32
3.19073e-32
2.35113e-32
1.74356e-32
1.3013e-32
9.86805e-33
7.57127e-33
5.86783e-33
4.66382e-33
3.67615e-33
2.9443e-33
2.40648e-33
1.99439e-33
1.67215e-33
1.44819e-33
1.24778e-33
1.08254e-33
9.47098e-34
8.25005e-34
7.13662e-34
6.1918e-34
5.4263e-34
4.67587e-34
4.06374e-34
3.59868e-34
3.04887e-34
2.65126e-34
2.21453e-34
1.94975e-34
1.66576e-34
1.41592e-34
1.22006e-34
9.86788e-35
8.23708e-35
7.17798e-35
5.80103e-35
4.62971e-35
3.90785e-35
3.04953e-35
2.55524e-35
2.04877e-35
1.4628e-35
1.21442e-35
9.93817e-36
8.09093e-36
5.83229e-36
4.24919e-36
3.3846e-36
3.80738e-36
5.51483e-37
1.43731e-36
1.02163e-36
7.888e-37
6.20606e-37
4.62286e-37
4.55062e-37
3.63671e-37
4.56609e-37
4.09325e-37
5.55799e-37
6.26461e-37
7.01134e-37
7.78739e-37
7.61676e-37
1.04799e-36
1.22852e-36
9.92594e-37
1.05957e-36
1.22798e-36
1.29503e-36
1.35876e-36
1.32346e-36
1.47403e-36
1.34929e-36
1.57602e-36
1.55543e-36
1.56287e-36
1.6879e-36
1.6961e-36
1.75595e-36
1.70683e-36
1.20166e-36
1.73424e-36
1.81626e-36
1.6999e-36
1.65156e-36
1.49568e-36
1.67496e-36
1.48014e-36
1.52636e-36
1.39014e-36
1.33547e-36
1.27969e-36
1.12769e-36
1.25008e-36
1.18718e-36
1.0281e-36
1.06026e-36
9.89715e-37
1.11185e-36
6.74434e-37
7.94986e-37
7.27945e-37
6.66851e-37
6.08509e-37
5.53098e-37
5.00735e-37
4.5147e-37
4.05376e-37
3.62519e-37
3.22922e-37
2.86549e-37
2.53316e-37
2.231e-37
1.95746e-37
1.71074e-37
1.48886e-37
1.28969e-37
1.111e-37
9.5047e-38
8.05704e-38
6.74276e-38
5.53728e-38
4.41587e-38
3.35379e-38
2.32637e-38
1.30914e-38
2.77918e-39
-7.91056e-39
-1.92095e-38
-3.1341e-38
-4.45157e-38
-5.89255e-38
-7.47324e-38
-9.20532e-38
-1.10937e-37
-1.31341e-37
-1.53126e-37
-1.76092e-37
-2.00063e-37
-2.24916e-37
-2.50657e-37
-2.80922e-37
-1.33277e-37
-3.42076e-37
-3.72334e-37
-4.05857e-37
-4.38381e-37
-4.69266e-37
-4.97984e-37
-5.24025e-37
-5.46853e-37
-5.65798e-37
-5.80016e-37
-5.88559e-37
-5.90666e-37
-5.86459e-37
-5.78233e-37
-5.71688e-37
-5.656e-37
4.94189e-37
)
;
    }
    outlet
    {
        type            cyclic;
        value           nonuniform List<scalar> 
344
(
-1.00598e-23
-2.24895e-23
-3.48836e-23
-4.72141e-23
-5.94325e-23
-6.44315e-23
-6.93333e-23
-7.42202e-23
-7.93547e-23
-7.70086e-23
-7.49208e-23
-7.28763e-23
-7.08677e-23
-6.88928e-23
-6.69497e-23
-6.50401e-23
-6.31683e-23
-6.13383e-23
-5.95572e-23
-5.78307e-23
-5.61635e-23
-5.45587e-23
-5.30226e-23
-5.1555e-23
-5.01592e-23
-4.88372e-23
-4.75907e-23
-4.64212e-23
-4.53299e-23
-4.43181e-23
-4.33867e-23
-4.25366e-23
-4.17685e-23
-4.10833e-23
-4.04812e-23
-3.99628e-23
-3.95274e-23
-3.91784e-23
-3.89125e-23
-3.87306e-23
-3.86327e-23
-3.86183e-23
-3.86873e-23
-3.88404e-23
-3.90746e-23
-3.93906e-23
-3.97884e-23
-4.02668e-23
-4.08298e-23
-4.14937e-23
-4.22904e-23
-4.31373e-23
-4.12324e-23
-3.93728e-23
-3.76463e-23
-3.60151e-23
-3.44623e-23
-3.29827e-23
-3.15753e-23
-3.02396e-23
-2.89734e-23
-2.77811e-23
-2.66558e-23
-2.56024e-23
-2.46146e-23
-2.36956e-23
-2.28441e-23
-2.20595e-23
-2.13413e-23
-2.06894e-23
-2.01013e-23
-1.95804e-23
-1.91251e-23
-1.87335e-23
-1.84066e-23
-1.81446e-23
-1.79476e-23
-1.78191e-23
-1.79812e-23
-1.65423e-23
-1.29011e-23
-1.01462e-23
-1.1555e-23
-6.1927e-24
-8.05992e-25
1.37687e-23
1.48593e-23
1.59122e-23
1.69138e-23
2.35482e-23
2.16679e-23
1.98455e-23
1.56505e-23
1.14611e-23
1.00059e-23
8.55626e-24
7.14002e-24
6.90772e-24
6.72026e-24
5.9539e-24
5.24518e-24
4.5881e-24
3.98246e-24
3.42776e-24
2.92247e-24
2.46425e-24
2.05037e-24
1.67798e-24
1.34401e-24
1.11463e-24
9.17173e-25
7.4835e-25
6.04904e-25
4.83853e-25
3.82462e-25
2.98207e-25
2.28771e-25
1.7205e-25
1.26161e-25
9.33248e-26
6.50942e-26
4.31252e-26
2.62904e-26
1.36184e-26
4.28114e-27
-2.41846e-27
-7.05703e-27
-9.78949e-27
-1.13326e-26
-1.20026e-26
-1.19138e-26
-1.13996e-26
-1.06472e-26
-9.73685e-27
-8.75287e-27
-7.75589e-27
-6.788e-27
-5.87688e-27
-5.03923e-27
-4.28357e-27
-3.61246e-27
-3.02436e-27
-2.51491e-27
-2.07811e-27
-1.70702e-27
-1.39436e-27
-1.13293e-27
-9.15891e-28
-7.36873e-28
-5.90121e-28
-4.70514e-28
-3.73562e-28
-2.95375e-28
-2.32638e-28
-1.8253e-28
-1.42686e-28
-1.11144e-28
-8.62757e-29
-6.67449e-29
-5.14669e-29
-3.95595e-29
-3.03108e-29
-2.31521e-29
-1.76319e-29
-1.33871e-29
-1.01343e-29
-7.64958e-30
-5.75736e-30
-4.32076e-30
-3.23336e-30
-2.41271e-30
-1.79532e-30
-1.33236e-30
-9.85825e-31
-7.27729e-31
-5.35585e-31
-3.93292e-31
-2.881e-31
-2.10661e-31
-1.53845e-31
-1.12221e-31
-8.1823e-32
-5.96554e-32
-4.35485e-32
-3.19073e-32
-2.35113e-32
-1.74356e-32
-1.3013e-32
-9.86805e-33
-7.57127e-33
-5.86783e-33
-4.66382e-33
-3.67615e-33
-2.9443e-33
-2.40648e-33
-1.99439e-33
-1.67215e-33
-1.44819e-33
-1.24778e-33
-1.08254e-33
-9.47098e-34
-8.25005e-34
-7.13662e-34
-6.1918e-34
-5.4263e-34
-4.67587e-34
-4.06374e-34
-3.59868e-34
-3.04887e-34
-2.65126e-34
-2.21453e-34
-1.94975e-34
-1.66576e-34
-1.41592e-34
-1.22006e-34
-9.86788e-35
-8.23708e-35
-7.17798e-35
-5.80103e-35
-4.62971e-35
-3.90785e-35
-3.04953e-35
-2.55524e-35
-2.04877e-35
-1.4628e-35
-1.21442e-35
-9.93817e-36
-8.09093e-36
-5.83229e-36
-4.24919e-36
-3.3846e-36
-3.80738e-36
-5.51483e-37
-1.43731e-36
-1.02163e-36
-7.888e-37
-6.20606e-37
-4.62286e-37
-4.55062e-37
-3.63671e-37
-4.56609e-37
-4.09325e-37
-5.55799e-37
-6.26461e-37
-7.01134e-37
-7.78739e-37
-7.61676e-37
-1.04799e-36
-1.22852e-36
-9.92594e-37
-1.05957e-36
-1.22798e-36
-1.29503e-36
-1.35876e-36
-1.32346e-36
-1.47403e-36
-1.34929e-36
-1.57602e-36
-1.55543e-36
-1.56287e-36
-1.6879e-36
-1.6961e-36
-1.75595e-36
-1.70683e-36
-1.20166e-36
-1.73424e-36
-1.81626e-36
-1.6999e-36
-1.65156e-36
-1.49568e-36
-1.67496e-36
-1.48014e-36
-1.52636e-36
-1.39014e-36
-1.33547e-36
-1.27969e-36
-1.12769e-36
-1.25008e-36
-1.18718e-36
-1.0281e-36
-1.06026e-36
-9.89715e-37
-1.11185e-36
-6.74434e-37
-7.94986e-37
-7.27945e-37
-6.66851e-37
-6.08509e-37
-5.53098e-37
-5.00735e-37
-4.5147e-37
-4.05376e-37
-3.62519e-37
-3.22922e-37
-2.86549e-37
-2.53316e-37
-2.231e-37
-1.95746e-37
-1.71074e-37
-1.48886e-37
-1.28969e-37
-1.111e-37
-9.5047e-38
-8.05704e-38
-6.74276e-38
-5.53728e-38
-4.41587e-38
-3.35379e-38
-2.32637e-38
-1.30914e-38
-2.77918e-39
7.91056e-39
1.92095e-38
3.1341e-38
4.45157e-38
5.89255e-38
7.47324e-38
9.20532e-38
1.10937e-37
1.31341e-37
1.53126e-37
1.76092e-37
2.00063e-37
2.24916e-37
2.50657e-37
2.80922e-37
1.33277e-37
3.42076e-37
3.72334e-37
4.05857e-37
4.38381e-37
4.69266e-37
4.97984e-37
5.24025e-37
5.46853e-37
5.65798e-37
5.80016e-37
5.88559e-37
5.90666e-37
5.86459e-37
5.78233e-37
5.71688e-37
5.656e-37
-4.94189e-37
)
;
    }
    top
    {
        type            calculated;
        value           uniform 2.33041e-24;
    }
    bottom
    {
        type            fixedValue;
        value           uniform 0;
    }
    frontAndBackPlanes
    {
        type            empty;
        value           nonuniform List<scalar> 0();
    }
}


// ************************************************************************* //
