/*--------------------------------*- C++ -*----------------------------------*\
| =========                 |                                                 |
| \\      /  F ield         | OpenFOAM: The Open Source CFD Toolbox           |
|  \\    /   O peration     | Version:  2206                                  |
|   \\  /    A nd           | Website:  www.openfoam.com                      |
|    \\/     M anipulation  |                                                 |
\*---------------------------------------------------------------------------*/
FoamFile
{
    version     2.0;
    format      ascii;
    arch        "LSB;label=32;scalar=64";
    class       surfaceScalarField;
    location    "180";
    object      phi.a;
}
// * * * * * * * * * * * * * * * * * * * * * * * * * * * * * * * * * * * * * //

dimensions      [0 3 -1 0 0 0 0];

oriented        oriented;

internalField   nonuniform List<scalar> 
343
(
-2.80405e-16
-5.60989e-16
-8.25438e-16
-1.07949e-15
-1.30026e-15
-1.50368e-15
-1.66238e-15
-1.79856e-15
-1.88682e-15
-1.95365e-15
-1.97954e-15
-1.99021e-15
-1.97688e-15
-1.95958e-15
-1.94249e-15
-1.9366e-15
-1.95766e-15
-2.00394e-15
-2.09937e-15
-2.23158e-15
-2.4232e-15
-2.65348e-15
-2.93494e-15
-3.2473e-15
-3.58073e-15
-3.92311e-15
-4.23712e-15
-4.52883e-15
-4.73155e-15
-4.87314e-15
-4.86951e-15
-4.76887e-15
-4.48843e-15
-4.08355e-15
-3.50315e-15
-2.79122e-15
-1.95407e-15
-1.00089e-15
-1.19996e-17
1.04715e-15
2.03674e-15
3.02603e-15
3.86633e-15
4.61709e-15
5.21025e-15
5.61167e-15
5.9547e-15
5.99748e-15
6.19148e-15
5.97875e-15
6.19605e-15
5.92382e-15
6.34109e-15
6.23513e-15
6.9368e-15
7.1668e-15
8.05915e-15
8.66028e-15
9.42631e-15
1.02466e-14
1.0353e-14
1.10353e-14
9.80861e-15
9.77616e-15
6.56925e-15
4.9378e-15
-5.17796e-16
-5.01739e-15
-1.18601e-14
-2.01261e-14
-2.50259e-14
-3.36232e-14
-3.01808e-14
-2.28265e-14
-1.14469e-14
2.2536e-14
4.34675e-15
-1.25781e-12
-2.12972e-09
-3.41709e-09
-3.17775e-09
-4.72919e-09
-5.35647e-09
-5.33055e-09
-5.34554e-09
-5.35525e-09
-5.36958e-09
-5.3718e-09
-5.37318e-09
-5.37319e-09
-5.37319e-09
-5.37319e-09
-5.37319e-09
-5.37319e-09
-5.37319e-09
-5.37319e-09
-5.37319e-09
-5.37319e-09
-5.37319e-09
-5.37319e-09
-5.37258e-09
-5.36558e-09
-5.29511e-09
-4.88952e-09
-4.548e-09
-4.548e-09
-4.84122e-09
-5.13443e-09
-5.13443e-09
-5.13443e-09
-5.13443e-09
-5.13443e-09
-5.13443e-09
-5.13443e-09
-5.13443e-09
-5.13443e-09
-5.13443e-09
-5.13443e-09
-5.13443e-09
-5.13443e-09
-5.13443e-09
-5.13443e-09
-5.13443e-09
-5.13443e-09
-5.13443e-09
-4.832e-09
-4.52955e-09
-4.52956e-09
-4.83286e-09
-5.12404e-09
-4.86183e-09
-4.61174e-09
-4.61174e-09
-4.83031e-09
-5.04887e-09
-5.04887e-09
-4.95689e-09
-4.8649e-09
-4.8649e-09
-5.00033e-09
-5.12691e-09
-4.88882e-09
-4.65957e-09
-4.65957e-09
-4.89774e-09
-5.1359e-09
-5.1359e-09
-5.1359e-09
-5.09514e-09
-5.05438e-09
-5.05438e-09
-5.09586e-09
-5.13735e-09
-5.13735e-09
-5.13735e-09
-5.13735e-09
-5.13734e-09
-5.13734e-09
-4.76295e-09
-4.38855e-09
-4.38855e-09
-4.73045e-09
-5.07235e-09
-5.07235e-09
-5.07235e-09
-4.78359e-09
-4.49482e-09
-4.49482e-09
-4.81433e-09
-5.11901e-09
-4.81324e-09
-4.52229e-09
-4.52229e-09
-4.84219e-09
-5.16208e-09
-5.16208e-09
-5.16208e-09
-5.16208e-09
-5.16208e-09
-5.16208e-09
-5.16208e-09
-5.16208e-09
-5.16208e-09
-5.16208e-09
-5.16208e-09
-5.16208e-09
-5.16208e-09
-5.16208e-09
-5.15149e-09
-5.14089e-09
-5.14089e-09
-5.15218e-09
-5.16347e-09
-5.16347e-09
-5.16347e-09
-5.16347e-09
-5.06847e-09
-4.97347e-09
-4.97347e-09
-5.05145e-09
-5.12944e-09
-5.12944e-09
-5.12944e-09
-5.12944e-09
-4.92028e-09
-4.71113e-09
-4.71113e-09
-4.91798e-09
-5.12483e-09
-5.12483e-09
-5.12483e-09
-5.12483e-09
-5.12483e-09
-5.12483e-09
-4.75507e-09
-4.3853e-09
-4.3853e-09
-4.75394e-09
-5.12257e-09
-5.12257e-09
-5.12257e-09
-5.12257e-09
-5.12257e-09
-5.12257e-09
-5.12257e-09
-4.81912e-09
-4.51567e-09
-4.51567e-09
-4.82257e-09
-5.12946e-09
-5.12946e-09
-5.12946e-09
-5.12946e-09
-5.12946e-09
-5.12946e-09
-5.12946e-09
-5.12946e-09
-5.12946e-09
-5.12946e-09
-5.12946e-09
-4.79058e-09
-4.4517e-09
-4.4517e-09
-4.74921e-09
-5.04671e-09
-5.04671e-09
-4.78744e-09
-4.52817e-09
-4.52817e-09
-4.82579e-09
-5.1234e-09
-5.1234e-09
-5.1234e-09
-5.1234e-09
-5.1234e-09
-5.1234e-09
-5.1234e-09
-5.1234e-09
-4.84175e-09
-4.5601e-09
-4.56011e-09
-4.84627e-09
-5.11692e-09
-4.79342e-09
-4.48543e-09
-4.48543e-09
-4.82289e-09
-5.16155e-09
-5.14295e-09
-5.12315e-09
-5.12315e-09
-5.13896e-09
-5.15478e-09
-5.15478e-09
-5.15478e-09
-5.13827e-09
-5.12175e-09
-5.12175e-09
-5.13734e-09
-5.15293e-09
-5.15293e-09
-5.15293e-09
-4.90868e-09
-4.66443e-09
-4.66443e-09
-4.89436e-09
-5.12429e-09
-5.12429e-09
-5.12429e-09
-5.12429e-09
-5.12429e-09
-5.12429e-09
-4.79973e-09
-4.47518e-09
-4.47518e-09
-4.79918e-09
-5.12318e-09
-5.12318e-09
-5.12318e-09
-5.12318e-09
-5.12318e-09
-5.12318e-09
-4.99419e-09
-4.8652e-09
-4.8652e-09
-4.99609e-09
-5.12698e-09
-5.12698e-09
-5.12698e-09
-5.12698e-09
-5.12698e-09
-4.81529e-09
-4.50359e-09
-4.50359e-09
-4.82227e-09
-5.14094e-09
-5.14094e-09
-5.14094e-09
-5.14094e-09
-5.14094e-09
-5.14094e-09
-4.97818e-09
-4.81541e-09
-4.81541e-09
-4.97076e-09
-5.1261e-09
-5.1261e-09
-5.1261e-09
-5.1261e-09
-5.1261e-09
-5.1261e-09
-4.81809e-09
-4.51008e-09
-4.51008e-09
-4.82736e-09
-5.14464e-09
-5.14464e-09
-5.14464e-09
-5.14464e-09
-5.14464e-09
-5.14464e-09
-5.14464e-09
-5.14464e-09
)
;

boundaryField
{
    inlet
    {
        type            cyclic;
        value           nonuniform List<scalar> 
344
(
1.00996e-23
2.24988e-23
3.48839e-23
4.72143e-23
5.9468e-23
6.44316e-23
6.93333e-23
7.42205e-23
7.93899e-23
7.70072e-23
7.49208e-23
7.28763e-23
7.08669e-23
6.88928e-23
6.69505e-23
6.50409e-23
6.31683e-23
6.13383e-23
5.95572e-23
5.78307e-23
5.61635e-23
5.45595e-23
5.30226e-23
5.1555e-23
5.01592e-23
4.88372e-23
4.75907e-23
4.64212e-23
4.53299e-23
4.43181e-23
4.33867e-23
4.25366e-23
4.17686e-23
4.10833e-23
4.04813e-23
3.99629e-23
3.95284e-23
3.91784e-23
3.89125e-23
3.87307e-23
3.86327e-23
3.86184e-23
3.86873e-23
3.88392e-23
3.90739e-23
3.93906e-23
3.97884e-23
4.02668e-23
4.08298e-23
4.14938e-23
4.22916e-23
4.31384e-23
4.12325e-23
3.93739e-23
3.76464e-23
3.60151e-23
3.44623e-23
3.29827e-23
3.15753e-23
3.02397e-23
2.8975e-23
2.77812e-23
2.66567e-23
2.56016e-23
2.46146e-23
2.36956e-23
2.28441e-23
2.20595e-23
2.13415e-23
2.06894e-23
2.01029e-23
1.95816e-23
1.91252e-23
1.87335e-23
1.84066e-23
1.81445e-23
1.79476e-23
1.78154e-23
1.78174e-23
1.62536e-23
1.42274e-23
1.22839e-23
1.11374e-23
-3.66722e-24
-7.44938e-24
-6.14376e-24
-2.94678e-24
-1.54288e-24
-3.90906e-25
-3.90274e-25
-3.89807e-25
-3.89558e-25
-3.89417e-25
-3.89302e-25
-3.89209e-25
-3.89137e-25
-3.89085e-25
-3.89056e-25
-3.89049e-25
-3.89073e-25
-3.89188e-25
-4.65246e-25
-8.01508e-25
-1.39924e-24
-6.40824e-27
-6.3828e-27
-6.39539e-27
6.01021e-26
6.01065e-26
6.01095e-26
6.01129e-26
6.01167e-26
6.01206e-26
6.01246e-26
6.01285e-26
6.01322e-26
6.01357e-26
6.01388e-26
6.01415e-26
6.01438e-26
6.01456e-26
6.0147e-26
6.01479e-26
6.01482e-26
6.01481e-26
6.0151e-26
-2.95805e-24
-2.95807e-24
-2.95806e-24
-8.86878e-25
-2.18217e-25
-1.33976e-26
-1.33972e-26
-1.33972e-26
-2.69569e-27
-2.69569e-27
-2.69567e-27
-1.45639e-27
-1.4564e-27
-1.45637e-27
3.12535e-27
8.0821e-27
1.7708e-26
1.77085e-26
1.77282e-26
6.9433e-24
6.94333e-24
6.94334e-24
6.94352e-24
1.54968e-23
4.00836e-24
-7.4801e-24
2.54527e-24
2.63206e-24
-1.61132e-24
-5.56925e-24
-5.30983e-24
-5.25192e-24
-5.24953e-24
-2.05917e-24
-2.05916e-24
-2.05914e-24
-2.9969e-25
-2.99688e-25
-2.99686e-25
-2.99682e-25
-7.92354e-27
-7.9226e-27
-7.92235e-27
4.46084e-26
1.43854e-25
3.61231e-25
3.61235e-25
3.61335e-25
1.38756e-23
1.39744e-23
9.8683e-24
9.54366e-24
9.89153e-24
5.77391e-24
1.48463e-24
-1.71394e-24
-5.14705e-24
-8.6938e-24
-1.21014e-23
-1.58269e-23
-1.97869e-23
-2.34091e-23
-2.33812e-23
-2.38232e-23
-2.38229e-23
-2.38228e-23
-2.36509e-23
-2.35439e-23
-2.67498e-23
-2.91924e-23
-2.91221e-23
-5.99434e-24
-5.99423e-24
-5.99417e-24
-2.53445e-24
-2.68398e-24
-6.47896e-24
-9.53591e-24
-9.63585e-24
-1.87947e-24
-1.88012e-24
-1.88075e-24
6.85441e-24
6.69379e-24
3.10318e-24
-8.23405e-26
-3.93302e-24
-7.78179e-24
-7.70682e-24
9.61154e-24
-1.87581e-24
-1.33632e-23
6.35777e-24
6.35918e-24
6.48096e-24
3.0445e-24
-4.21978e-25
-4.08202e-24
-7.53931e-24
-7.66776e-24
-3.3664e-25
-3.36624e-25
-3.36567e-25
1.40088e-23
1.41209e-23
1.05414e-23
6.87142e-24
2.98303e-24
-7.64032e-25
-9.14872e-25
-1.05363e-24
-3.95535e-24
-6.77613e-24
-1.0317e-23
-2.19598e-23
-8.19489e-25
-8.19474e-25
-8.19459e-25
4.07954e-24
4.07956e-24
4.07957e-24
1.63776e-24
1.63701e-24
1.6364e-24
7.83275e-24
7.8294e-24
7.74561e-24
7.67648e-24
4.34347e-24
1.28905e-24
-2.72484e-24
-6.39856e-24
-6.35073e-24
-6.78857e-26
-6.78555e-26
-6.78548e-26
-1.01099e-25
-1.72754e-25
-2.56112e-25
-2.56113e-25
-2.56097e-25
3.08121e-24
4.20183e-24
5.32208e-24
5.32211e-24
5.32216e-24
8.36035e-24
-3.07126e-24
-9.82195e-24
-9.6508e-24
-1.2508e-23
-1.25079e-23
-1.25078e-23
-1.30368e-23
-1.30369e-23
-1.30368e-23
-1.30367e-23
-4.85014e-26
-4.84747e-26
-4.84739e-26
-6.78428e-27
-6.78412e-27
-6.78405e-27
-6.784e-27
-6.78396e-27
-6.78393e-27
-6.78388e-27
-6.16393e-30
-6.14818e-30
-6.14783e-30
-8.53844e-34
-8.33939e-34
-8.26295e-34
-8.20954e-34
-8.16858e-34
-8.14732e-34
-8.14663e-34
-4.85191e-37
-4.8253e-37
-4.82475e-37
-1.67599e-40
-1.63899e-40
-1.62602e-40
-1.61806e-40
-1.61429e-40
-1.61444e-40
2.41477e-41
2.42016e-41
2.407e-41
-7.23578e-41
-7.22378e-41
-7.22583e-41
-7.23497e-41
-7.24937e-41
-7.26679e-41
-7.30313e-41
-6.5061e-39
-6.50575e-39
-6.50608e-39
3.23098e-38
3.23116e-38
3.23121e-38
3.23121e-38
3.23116e-38
3.23109e-38
3.2309e-38
-1.90321e-39
-1.90189e-39
-1.90482e-39
-4.50634e-37
-4.50635e-37
-4.50635e-37
-4.50635e-37
-4.50635e-37
-4.50635e-37
-4.50635e-37
-4.50635e-37
-4.50635e-37
)
;
    }
    outlet
    {
        type            cyclic;
        value           nonuniform List<scalar> 
344
(
-1.00996e-23
-2.24988e-23
-3.48839e-23
-4.72143e-23
-5.9468e-23
-6.44316e-23
-6.93333e-23
-7.42205e-23
-7.93899e-23
-7.70072e-23
-7.49208e-23
-7.28763e-23
-7.08669e-23
-6.88928e-23
-6.69505e-23
-6.50409e-23
-6.31683e-23
-6.13383e-23
-5.95572e-23
-5.78307e-23
-5.61635e-23
-5.45595e-23
-5.30226e-23
-5.1555e-23
-5.01592e-23
-4.88372e-23
-4.75907e-23
-4.64212e-23
-4.53299e-23
-4.43181e-23
-4.33867e-23
-4.25366e-23
-4.17686e-23
-4.10833e-23
-4.04813e-23
-3.99629e-23
-3.95284e-23
-3.91784e-23
-3.89125e-23
-3.87307e-23
-3.86327e-23
-3.86184e-23
-3.86873e-23
-3.88392e-23
-3.90739e-23
-3.93906e-23
-3.97884e-23
-4.02668e-23
-4.08298e-23
-4.14938e-23
-4.22916e-23
-4.31384e-23
-4.12325e-23
-3.93739e-23
-3.76464e-23
-3.60151e-23
-3.44623e-23
-3.29827e-23
-3.15753e-23
-3.02397e-23
-2.8975e-23
-2.77812e-23
-2.66567e-23
-2.56016e-23
-2.46146e-23
-2.36956e-23
-2.28441e-23
-2.20595e-23
-2.13415e-23
-2.06894e-23
-2.01029e-23
-1.95816e-23
-1.91252e-23
-1.87335e-23
-1.84066e-23
-1.81445e-23
-1.79476e-23
-1.78154e-23
-1.78174e-23
-1.62536e-23
-1.42274e-23
-1.22839e-23
-1.11374e-23
3.66722e-24
7.44938e-24
6.14376e-24
2.94678e-24
1.54288e-24
3.90906e-25
3.90274e-25
3.89807e-25
3.89558e-25
3.89417e-25
3.89302e-25
3.89209e-25
3.89137e-25
3.89085e-25
3.89056e-25
3.89049e-25
3.89073e-25
3.89188e-25
4.65246e-25
8.01508e-25
1.39924e-24
6.40824e-27
6.3828e-27
6.39539e-27
-6.01021e-26
-6.01065e-26
-6.01095e-26
-6.01129e-26
-6.01167e-26
-6.01206e-26
-6.01246e-26
-6.01285e-26
-6.01322e-26
-6.01357e-26
-6.01388e-26
-6.01415e-26
-6.01438e-26
-6.01456e-26
-6.0147e-26
-6.01479e-26
-6.01482e-26
-6.01481e-26
-6.0151e-26
2.95805e-24
2.95807e-24
2.95806e-24
8.86878e-25
2.18217e-25
1.33976e-26
1.33972e-26
1.33972e-26
2.69569e-27
2.69569e-27
2.69567e-27
1.45639e-27
1.4564e-27
1.45637e-27
-3.12535e-27
-8.0821e-27
-1.7708e-26
-1.77085e-26
-1.77282e-26
-6.9433e-24
-6.94333e-24
-6.94334e-24
-6.94352e-24
-1.54968e-23
-4.00836e-24
7.4801e-24
-2.54527e-24
-2.63206e-24
1.61132e-24
5.56925e-24
5.30983e-24
5.25192e-24
5.24953e-24
2.05917e-24
2.05916e-24
2.05914e-24
2.9969e-25
2.99688e-25
2.99686e-25
2.99682e-25
7.92354e-27
7.9226e-27
7.92235e-27
-4.46084e-26
-1.43854e-25
-3.61231e-25
-3.61235e-25
-3.61335e-25
-1.38756e-23
-1.39744e-23
-9.8683e-24
-9.54366e-24
-9.89153e-24
-5.77391e-24
-1.48463e-24
1.71394e-24
5.14705e-24
8.6938e-24
1.21014e-23
1.58269e-23
1.97869e-23
2.34091e-23
2.33812e-23
2.38232e-23
2.38229e-23
2.38228e-23
2.36509e-23
2.35439e-23
2.67498e-23
2.91924e-23
2.91221e-23
5.99434e-24
5.99423e-24
5.99417e-24
2.53445e-24
2.68398e-24
6.47896e-24
9.53591e-24
9.63585e-24
1.87947e-24
1.88012e-24
1.88075e-24
-6.85441e-24
-6.69379e-24
-3.10318e-24
8.23405e-26
3.93302e-24
7.78179e-24
7.70682e-24
-9.61154e-24
1.87581e-24
1.33632e-23
-6.35777e-24
-6.35918e-24
-6.48096e-24
-3.0445e-24
4.21978e-25
4.08202e-24
7.53931e-24
7.66776e-24
3.3664e-25
3.36624e-25
3.36567e-25
-1.40088e-23
-1.41209e-23
-1.05414e-23
-6.87142e-24
-2.98303e-24
7.64032e-25
9.14872e-25
1.05363e-24
3.95535e-24
6.77613e-24
1.0317e-23
2.19598e-23
8.19489e-25
8.19474e-25
8.19459e-25
-4.07954e-24
-4.07956e-24
-4.07957e-24
-1.63776e-24
-1.63701e-24
-1.6364e-24
-7.83275e-24
-7.8294e-24
-7.74561e-24
-7.67648e-24
-4.34347e-24
-1.28905e-24
2.72484e-24
6.39856e-24
6.35073e-24
6.78857e-26
6.78555e-26
6.78548e-26
1.01099e-25
1.72754e-25
2.56112e-25
2.56113e-25
2.56097e-25
-3.08121e-24
-4.20183e-24
-5.32208e-24
-5.32211e-24
-5.32216e-24
-8.36035e-24
3.07126e-24
9.82195e-24
9.6508e-24
1.2508e-23
1.25079e-23
1.25078e-23
1.30368e-23
1.30369e-23
1.30368e-23
1.30367e-23
4.85014e-26
4.84747e-26
4.84739e-26
6.78428e-27
6.78412e-27
6.78405e-27
6.784e-27
6.78396e-27
6.78393e-27
6.78388e-27
6.16393e-30
6.14818e-30
6.14783e-30
8.53844e-34
8.33939e-34
8.26295e-34
8.20954e-34
8.16858e-34
8.14732e-34
8.14663e-34
4.85191e-37
4.8253e-37
4.82475e-37
1.67599e-40
1.63899e-40
1.62602e-40
1.61806e-40
1.61429e-40
1.61444e-40
-2.41477e-41
-2.42016e-41
-2.407e-41
7.23578e-41
7.22378e-41
7.22583e-41
7.23497e-41
7.24937e-41
7.26679e-41
7.30313e-41
6.5061e-39
6.50575e-39
6.50608e-39
-3.23098e-38
-3.23116e-38
-3.23121e-38
-3.23121e-38
-3.23116e-38
-3.23109e-38
-3.2309e-38
1.90321e-39
1.90189e-39
1.90482e-39
4.50634e-37
4.50635e-37
4.50635e-37
4.50635e-37
4.50635e-37
4.50635e-37
4.50635e-37
4.50635e-37
4.50635e-37
)
;
    }
    top
    {
        type            calculated;
        value           uniform -5.14464e-09;
    }
    bottom
    {
        type            fixedValue;
        value           uniform 0;
    }
    frontAndBackPlanes
    {
        type            empty;
        value           nonuniform List<scalar> 0();
    }
}


// ************************************************************************* //
