/*--------------------------------*- C++ -*----------------------------------*\
| =========                 |                                                 |
| \\      /  F ield         | OpenFOAM: The Open Source CFD Toolbox           |
|  \\    /   O peration     | Version:  2206                                  |
|   \\  /    A nd           | Website:  www.openfoam.com                      |
|    \\/     M anipulation  |                                                 |
\*---------------------------------------------------------------------------*/
FoamFile
{
    version     2.0;
    format      ascii;
    arch        "LSB;label=32;scalar=64";
    class       volVectorField;
    location    "180";
    object      U.a;
}
// * * * * * * * * * * * * * * * * * * * * * * * * * * * * * * * * * * * * * //

dimensions      [0 1 -1 0 0 0 0];

internalField   nonuniform List<vector> 
344
(
(-2.24436e-17 1.0567e-05 0)
(-4.99972e-17 -1.08334e-07 0)
(-7.75199e-17 9.44965e-08 0)
(-1.04921e-16 -1.07281e-07 0)
(-1.32151e-16 9.06024e-08 0)
(-1.43181e-16 -1.10671e-07 0)
(-1.54074e-16 8.74554e-08 0)
(-1.64934e-16 -1.13114e-07 0)
(-1.76422e-16 8.5347e-08 0)
(-1.71127e-16 -1.14469e-07 0)
(-1.66491e-16 8.43097e-08 0)
(-1.61947e-16 -1.14862e-07 0)
(-1.57482e-16 8.41412e-08 0)
(-1.53095e-16 -1.14651e-07 0)
(-1.48779e-16 8.44071e-08 0)
(-1.44535e-16 -1.14383e-07 0)
(-1.40374e-16 8.44995e-08 0)
(-1.36307e-16 -1.14707e-07 0)
(-1.32349e-16 8.37893e-08 0)
(-1.28513e-16 -1.16181e-07 0)
(-1.24808e-16 8.17535e-08 0)
(-1.21243e-16 -1.19141e-07 0)
(-1.17828e-16 7.82033e-08 0)
(-1.14567e-16 -1.23488e-07 0)
(-1.11465e-16 7.33829e-08 0)
(-1.08527e-16 -1.28636e-07 0)
(-1.05757e-16 6.80938e-08 0)
(-1.03158e-16 -1.33482e-07 0)
(-1.00733e-16 6.35806e-08 0)
(-9.84847e-17 -1.36605e-07 0)
(-9.64149e-17 6.13791e-08 0)
(-9.45258e-17 -1.36539e-07 0)
(-9.28191e-17 6.29139e-08 0)
(-9.12962e-17 -1.322e-07 0)
(-8.99584e-17 6.91475e-08 0)
(-8.88064e-17 -1.23231e-07 0)
(-8.78408e-17 8.01288e-08 0)
(-8.70631e-17 -1.10307e-07 0)
(-8.64722e-17 9.48472e-08 0)
(-8.60681e-17 -9.50487e-08 0)
(-8.58505e-17 1.11214e-07 0)
(-8.58186e-17 -7.97879e-08 0)
(-8.59718e-17 1.2651e-07 0)
(-8.63094e-17 -6.68328e-08 0)
(-8.68309e-17 1.38115e-07 0)
(-8.75348e-17 -5.76791e-08 0)
(-8.84187e-17 1.44297e-07 0)
(-8.94818e-17 -5.23512e-08 0)
(-9.07329e-17 1.44888e-07 0)
(-9.22084e-17 -4.92661e-08 0)
(-9.39812e-17 1.41462e-07 0)
(-9.58632e-17 -4.57502e-08 0)
(-9.16278e-17 1.37043e-07 0)
(-8.74975e-17 -3.90823e-08 0)
(-8.36586e-17 1.35146e-07 0)
(-8.00335e-17 -2.79958e-08 0)
(-7.65829e-17 1.3845e-07 0)
(-7.32949e-17 -1.40072e-08 0)
(-7.01673e-17 1.47589e-07 0)
(-6.71992e-17 -2.1073e-09 0)
(-6.43889e-17 1.60323e-07 0)
(-6.17359e-17 -6.3863e-10 0)
(-5.92371e-17 1.71245e-07 0)
(-5.68924e-17 -2.00898e-08 0)
(-5.46991e-17 1.7151e-07 0)
(-5.26569e-17 -7.04492e-08 0)
(-5.07646e-17 1.47364e-07 0)
(-4.90211e-17 -1.55613e-07 0)
(-4.74256e-17 7.87172e-08 0)
(-4.59765e-17 -2.61599e-07 0)
(-4.46732e-17 -4.93828e-08 0)
(-4.35146e-17 -3.36126e-07 0)
(-4.25004e-17 -1.84777e-07 0)
(-4.163e-17 -2.81236e-07 0)
(-4.09036e-17 -7.23176e-08 0)
(-4.03211e-17 -1.0938e-07 0)
(-3.98836e-17 4.60727e-07 0)
(-3.95897e-17 -4.84248e-07 0)
(-3.95943e-17 2.7463e-06 0)
(-3.61192e-17 -0.0281791 0)
(-3.16163e-17 -0.0178855 0)
(-2.72975e-17 -0.0306509 0)
(-2.47499e-17 -0.0419625 0)
(8.14939e-18 -0.0409607 0)
(1.65542e-17 -0.0412834 0)
(1.36528e-17 -0.0412132 0)
(6.5484e-18 -0.041429 0)
(3.42861e-18 -0.0414379 0)
(8.6868e-19 -0.0414598 0)
(8.67275e-19 -0.0414598 0)
(8.66237e-19 -0.0414598 0)
(8.65684e-19 -0.0414598 0)
(8.6537e-19 -0.0414598 0)
(8.65115e-19 -0.0414598 0)
(8.64909e-19 -0.0414598 0)
(8.64748e-19 -0.0414598 0)
(8.64634e-19 -0.0414598 0)
(8.64569e-19 -0.0414598 0)
(8.64554e-19 -0.0414598 0)
(8.64606e-19 -0.0414598 0)
(8.64862e-19 -0.0414598 0)
(1.03388e-18 -0.0414504 0)
(1.78113e-18 -0.0413519 0)
(3.10943e-18 -0.0403624 0)
(1.42405e-20 -0.0350927 0)
(1.4184e-20 -0.0350925 0)
(1.4212e-20 -0.0350927 0)
(-1.3356e-19 -0.0396175 0)
(-1.3357e-19 -0.0396175 0)
(-1.33577e-19 -0.0396175 0)
(-1.33584e-19 -0.0396175 0)
(-1.33593e-19 -0.0396175 0)
(-1.33601e-19 -0.0396175 0)
(-1.3361e-19 -0.0396175 0)
(-1.33619e-19 -0.0396175 0)
(-1.33627e-19 -0.0396175 0)
(-1.33635e-19 -0.0396175 0)
(-1.33642e-19 -0.0396175 0)
(-1.33648e-19 -0.0396175 0)
(-1.33653e-19 -0.0396175 0)
(-1.33657e-19 -0.0396175 0)
(-1.3366e-19 -0.0396175 0)
(-1.33662e-19 -0.0396175 0)
(-1.33663e-19 -0.0396175 0)
(-1.33662e-19 -0.0396175 0)
(-1.33669e-19 -0.0396175 0)
(6.57345e-18 -0.0349503 0)
(6.57349e-18 -0.0349502 0)
(6.57346e-18 -0.0349503 0)
(1.97084e-18 -0.0396309 0)
(4.84926e-19 -0.0394438 0)
(2.97724e-20 -0.0355844 0)
(2.97716e-20 -0.0355844 0)
(2.97714e-20 -0.0355844 0)
(5.99042e-21 -0.0389573 0)
(5.99042e-21 -0.0389573 0)
(5.99037e-21 -0.0389573 0)
(3.23642e-21 -0.0375378 0)
(3.23644e-21 -0.0375378 0)
(3.23637e-21 -0.0375378 0)
(-6.94523e-21 -0.0396277 0)
(-1.79602e-20 -0.0394913 0)
(-3.93512e-20 -0.0359535 0)
(-3.93522e-20 -0.0359534 0)
(-3.9396e-20 -0.0359535 0)
(-1.54296e-17 -0.0396289 0)
(-1.54296e-17 -0.0396289 0)
(-1.54296e-17 -0.0396289 0)
(-1.54301e-17 -0.0396289 0)
(-3.44374e-17 -0.0389998 0)
(-8.90746e-18 -0.0389998 0)
(1.66224e-17 -0.0389998 0)
(-5.65615e-18 -0.03964 0)
(-5.84901e-18 -0.03964 0)
(3.58072e-18 -0.03964 0)
(1.23761e-17 -0.03964 0)
(1.17996e-17 -0.03964 0)
(1.16709e-17 -0.03964 0)
(1.16656e-17 -0.03964 0)
(4.57593e-18 -0.0338623 0)
(4.5759e-18 -0.0338622 0)
(4.57587e-18 -0.0338623 0)
(6.65977e-19 -0.0391385 0)
(6.65973e-19 -0.0391385 0)
(6.6597e-19 -0.0391385 0)
(6.6596e-19 -0.0391385 0)
(1.76079e-20 -0.0346823 0)
(1.76058e-20 -0.0346822 0)
(1.76052e-20 -0.0346823 0)
(-9.91298e-20 -0.039613 0)
(-3.19676e-19 -0.0393841 0)
(-8.02736e-19 -0.0348942 0)
(-8.02743e-19 -0.0348942 0)
(-8.02967e-19 -0.0348942 0)
(-3.08347e-17 -0.0398308 0)
(-3.10542e-17 -0.0398308 0)
(-2.19296e-17 -0.0398308 0)
(-2.12081e-17 -0.0398308 0)
(-2.19812e-17 -0.0398308 0)
(-1.28309e-17 -0.0398308 0)
(-3.29917e-18 -0.0398309 0)
(3.80876e-18 -0.0398309 0)
(1.14379e-17 -0.0398309 0)
(1.93195e-17 -0.0398309 0)
(2.68921e-17 -0.0398309 0)
(3.51709e-17 -0.0398309 0)
(4.39709e-17 -0.0398309 0)
(5.20203e-17 -0.0398309 0)
(5.19582e-17 -0.0398309 0)
(5.29404e-17 -0.0396674 0)
(5.29398e-17 -0.0396674 0)
(5.29397e-17 -0.0396674 0)
(5.25575e-17 -0.0398416 0)
(5.23197e-17 -0.0398416 0)
(5.94441e-17 -0.0398416 0)
(6.4872e-17 -0.0398416 0)
(6.47157e-17 -0.0398416 0)
(1.33208e-17 -0.0383755 0)
(1.33205e-17 -0.0383755 0)
(1.33204e-17 -0.0383755 0)
(5.6321e-18 -0.039579 0)
(5.9644e-18 -0.039579 0)
(1.43977e-17 -0.039579 0)
(2.11909e-17 -0.039579 0)
(2.1413e-17 -0.039579 0)
(4.17659e-18 -0.0363513 0)
(4.17804e-18 -0.0363513 0)
(4.17944e-18 -0.0363513 0)
(-1.5232e-17 -0.0395434 0)
(-1.48751e-17 -0.0395434 0)
(-6.89595e-18 -0.0395434 0)
(1.82979e-19 -0.0395434 0)
(8.74005e-18 -0.0395434 0)
(1.72929e-17 -0.0395434 0)
(1.71263e-17 -0.0395434 0)
(-2.1359e-17 -0.0338373 0)
(4.16848e-18 -0.0338372 0)
(2.96959e-17 -0.0338373 0)
(-1.41284e-17 -0.039526 0)
(-1.41315e-17 -0.039526 0)
(-1.44021e-17 -0.039526 0)
(-6.76557e-18 -0.039526 0)
(9.37729e-19 -0.039526 0)
(9.07115e-18 -0.039526 0)
(1.6754e-17 -0.039526 0)
(1.70395e-17 -0.039526 0)
(7.48088e-19 -0.0348432 0)
(7.48053e-19 -0.0348431 0)
(7.47928e-19 -0.0348432 0)
(-3.11307e-17 -0.0395792 0)
(-3.13799e-17 -0.0395792 0)
(-2.34252e-17 -0.0395792 0)
(-1.52698e-17 -0.0395792 0)
(-6.62895e-18 -0.0395792 0)
(1.69785e-18 -0.0395792 0)
(2.03305e-18 -0.0395792 0)
(2.3414e-18 -0.0395792 0)
(8.78967e-18 -0.0395792 0)
(1.50581e-17 -0.0395791 0)
(2.29266e-17 -0.0395791 0)
(4.87995e-17 -0.0395791 0)
(1.82109e-18 -0.0343496 0)
(1.82105e-18 -0.0343495 0)
(1.82102e-18 -0.0343496 0)
(-9.06565e-18 -0.0389407 0)
(-9.06569e-18 -0.0389407 0)
(-9.06572e-18 -0.0389407 0)
(-3.63946e-18 -0.0349396 0)
(-3.63781e-18 -0.0349396 0)
(-3.63643e-18 -0.0349396 0)
(-1.74061e-17 -0.0395324 0)
(-1.73987e-17 -0.0395324 0)
(-1.72125e-17 -0.0395324 0)
(-1.70589e-17 -0.0395324 0)
(-9.65216e-18 -0.0395324 0)
(-2.86456e-18 -0.0395324 0)
(6.0552e-18 -0.0395324 0)
(1.4219e-17 -0.0395324 0)
(1.41127e-17 -0.0395324 0)
(1.50857e-19 -0.035186 0)
(1.5079e-19 -0.035186 0)
(1.50788e-19 -0.035186 0)
(2.24664e-19 -0.0396021 0)
(3.83898e-19 -0.0393626 0)
(5.69137e-19 -0.0346099 0)
(5.6914e-19 -0.0346098 0)
(5.69105e-19 -0.0346099 0)
(-6.84713e-18 -0.0398174 0)
(-9.3374e-18 -0.0398361 0)
(-1.18268e-17 -0.0395305 0)
(-1.18269e-17 -0.0395305 0)
(-1.1827e-17 -0.0395305 0)
(-1.85786e-17 -0.0397745 0)
(6.82501e-18 -0.0397745 0)
(2.18266e-17 -0.0397745 0)
(2.14462e-17 -0.0397745 0)
(2.77955e-17 -0.0395197 0)
(2.77954e-17 -0.0395197 0)
(2.77951e-17 -0.0395197 0)
(2.89706e-17 -0.0397603 0)
(2.89708e-17 -0.0397603 0)
(2.89707e-17 -0.0397603 0)
(2.89705e-17 -0.0397603 0)
(1.07781e-19 -0.035991 0)
(1.07722e-19 -0.035991 0)
(1.0772e-19 -0.035991 0)
(1.50762e-20 -0.0395393 0)
(1.50758e-20 -0.0395393 0)
(1.50757e-20 -0.0395393 0)
(1.50756e-20 -0.0395393 0)
(1.50755e-20 -0.0395393 0)
(1.50754e-20 -0.0395393 0)
(1.50753e-20 -0.0395393 0)
(1.36976e-23 -0.0345307 0)
(1.36626e-23 -0.0345307 0)
(1.36619e-23 -0.0345307 0)
(1.89743e-27 -0.0395307 0)
(1.8532e-27 -0.0395307 0)
(1.83621e-27 -0.0395307 0)
(1.82434e-27 -0.0395307 0)
(1.81524e-27 -0.0395307 0)
(1.81052e-27 -0.0395307 0)
(1.81036e-27 -0.0395307 0)
(1.0782e-30 -0.0375401 0)
(1.07229e-30 -0.0375401 0)
(1.07217e-30 -0.0375401 0)
(3.72443e-34 -0.0395601 0)
(3.64221e-34 -0.0395601 0)
(3.61338e-34 -0.0395601 0)
(3.59569e-34 -0.0395601 0)
(3.58731e-34 -0.0395601 0)
(3.58765e-34 -0.0395601 0)
(-5.36614e-35 -0.0347499 0)
(-5.37813e-35 -0.0347499 0)
(-5.3489e-35 -0.0347499 0)
(1.60795e-34 -0.0396678 0)
(1.60528e-34 -0.0396678 0)
(1.60574e-34 -0.0396678 0)
(1.60777e-34 -0.0396678 0)
(1.61097e-34 -0.0396678 0)
(1.61484e-34 -0.0396678 0)
(1.62292e-34 -0.0396678 0)
(1.4458e-32 -0.037156 0)
(1.44572e-32 -0.0371559 0)
(1.4458e-32 -0.037156 0)
(-7.17995e-32 -0.0395532 0)
(-7.18036e-32 -0.0395532 0)
(-7.18046e-32 -0.0395532 0)
(-7.18046e-32 -0.0395532 0)
(-7.18036e-32 -0.0395532 0)
(-7.18021e-32 -0.0395532 0)
(-7.17977e-32 -0.0395532 0)
(4.22935e-33 -0.0348 0)
(4.22642e-33 -0.0348 0)
(4.23294e-33 -0.0348 0)
(1.00141e-30 -0.0396963 0)
(1.00141e-30 -0.0396963 0)
(1.00141e-30 -0.0396963 0)
(1.00141e-30 -0.0396963 0)
(1.00141e-30 -0.0396963 0)
(1.00141e-30 -0.0396963 0)
(1.00141e-30 -0.0396963 0)
(1.00141e-30 -0.0396963 0)
(1.00141e-30 -0.0396963 0)
)
;

boundaryField
{
    inlet
    {
        type            cyclic;
    }
    outlet
    {
        type            cyclic;
    }
    top
    {
        type            zeroGradient;
    }
    bottom
    {
        type            fixedValue;
        value           uniform (0 0 0);
    }
    frontAndBackPlanes
    {
        type            empty;
    }
}


// ************************************************************************* //
