/*--------------------------------*- C++ -*----------------------------------*\
| =========                 |                                                 |
| \\      /  F ield         | OpenFOAM: The Open Source CFD Toolbox           |
|  \\    /   O peration     | Version:  2206                                  |
|   \\  /    A nd           | Website:  www.openfoam.com                      |
|    \\/     M anipulation  |                                                 |
\*---------------------------------------------------------------------------*/
FoamFile
{
    version     2.0;
    format      ascii;
    arch        "LSB;label=32;scalar=64";
    class       volVectorField;
    location    "180";
    object      U.b;
}
// * * * * * * * * * * * * * * * * * * * * * * * * * * * * * * * * * * * * * //

dimensions      [0 1 -1 0 0 0 0];

internalField   nonuniform List<vector> 
344
(
(-2.2355e-17 1.01451e-05 0)
(-4.99766e-17 -3.34417e-07 0)
(-7.75192e-17 1.04379e-07 0)
(-1.0492e-16 -8.85159e-08 0)
(-1.32072e-16 1.11231e-07 0)
(-1.43181e-16 -8.29545e-08 0)
(-1.54074e-16 1.15376e-07 0)
(-1.64934e-16 -7.92858e-08 0)
(-1.76344e-16 1.18098e-07 0)
(-1.7113e-16 -7.71179e-08 0)
(-1.66491e-16 1.19358e-07 0)
(-1.61947e-16 -7.63218e-08 0)
(-1.57484e-16 1.19491e-07 0)
(-1.53095e-16 -7.6438e-08 0)
(-1.48777e-16 1.19134e-07 0)
(-1.44534e-16 -7.67256e-08 0)
(-1.40374e-16 1.19134e-07 0)
(-1.36307e-16 -7.63036e-08 0)
(-1.32349e-16 1.20349e-07 0)
(-1.28513e-16 -7.43675e-08 0)
(-1.24808e-16 1.23423e-07 0)
(-1.21242e-16 -7.04217e-08 0)
(-1.17828e-16 1.28535e-07 0)
(-1.14567e-16 -6.45248e-08 0)
(-1.11465e-16 1.35221e-07 0)
(-1.08527e-16 -5.74245e-08 0)
(-1.05757e-16 1.42299e-07 0)
(-1.03158e-16 -5.05802e-08 0)
(-1.00733e-16 1.47995e-07 0)
(-9.84846e-17 -4.5949e-08 0)
(-9.64148e-17 1.50261e-07 0)
(-9.45257e-17 -4.56025e-08 0)
(-9.2819e-17 1.47279e-07 0)
(-9.12961e-17 -5.11812e-08 0)
(-8.99583e-17 1.37999e-07 0)
(-8.88063e-17 -6.33518e-08 0)
(-8.78386e-17 1.22616e-07 0)
(-8.7063e-17 -8.13873e-08 0)
(-8.64721e-17 1.02729e-07 0)
(-8.6068e-17 -1.03091e-07 0)
(-8.58504e-17 8.11499e-08 0)
(-8.58185e-17 -1.25115e-07 0)
(-8.59717e-17 6.12154e-08 0)
(-8.6312e-17 -1.43797e-07 0)
(-8.68324e-17 4.57388e-08 0)
(-8.75347e-17 -1.56253e-07 0)
(-8.84186e-17 3.59695e-08 0)
(-8.94817e-17 -1.61358e-07 0)
(-9.07328e-17 3.09896e-08 0)
(-9.22082e-17 -1.60278e-07 0)
(-9.39787e-17 2.79139e-08 0)
(-9.58606e-17 -1.56285e-07 0)
(-9.16276e-17 2.28895e-08 0)
(-8.74952e-17 -1.53798e-07 0)
(-8.36585e-17 1.28177e-08 0)
(-8.00334e-17 -1.56718e-07 0)
(-7.65829e-17 -2.68983e-09 0)
(-7.32949e-17 -1.66676e-07 0)
(-7.01673e-17 -1.98758e-08 0)
(-6.71992e-17 -1.81712e-07 0)
(-6.43853e-17 -3.03601e-08 0)
(-6.17359e-17 -1.95677e-07 0)
(-5.92352e-17 -2.19076e-08 0)
(-5.68942e-17 -1.98186e-07 0)
(-5.46991e-17 1.93111e-08 0)
(-5.26569e-17 -1.74187e-07 0)
(-5.07646e-17 1.04115e-07 0)
(-4.90211e-17 -1.03349e-07 0)
(-4.7425e-17 2.30268e-07 0)
(-4.59765e-17 3.18944e-08 0)
(-4.46696e-17 3.61269e-07 0)
(-4.35121e-17 1.99958e-07 0)
(-4.25003e-17 3.97995e-07 0)
(-4.163e-17 2.03664e-07 0)
(-4.09036e-17 2.42583e-07 0)
(-4.03213e-17 -2.41263e-07 0)
(-3.98836e-17 -1.77658e-08 0)
(-3.9598e-17 -4.45602e-06 0)
(-3.99581e-17 0.000573621 0)
(-3.67607e-17 0.0106705 0)
(-2.8669e-17 -0.00665615 0)
(-2.25471e-17 0.00433036 0)
(-2.56779e-17 -0.00315694 0)
(-1.37616e-17 0.00249118 0)
(-1.79109e-18 -0.00197367 0)
(3.05972e-17 0.00152217 0)
(3.30207e-17 -0.00114915 0)
(3.53604e-17 0.000860551 0)
(3.75862e-17 -0.000644809 0)
(5.23293e-17 0.000484956 0)
(4.81508e-17 -0.000365926 0)
(4.41011e-17 0.000276437 0)
(3.47789e-17 -0.000208613 0)
(2.54692e-17 0.000157021 0)
(2.22354e-17 -0.00011781 0)
(1.90139e-17 8.81254e-05 0)
(1.58667e-17 -6.57694e-05 0)
(1.53505e-17 4.90171e-05 0)
(1.49339e-17 -3.65129e-05 0)
(1.32309e-17 2.72025e-05 0)
(1.1656e-17 -2.02775e-05 0)
(1.01958e-17 1.51266e-05 0)
(8.8499e-18 -1.12928e-05 0)
(7.61725e-18 8.43631e-06 0)
(6.49437e-18 -6.30574e-06 0)
(5.4761e-18 4.71514e-06 0)
(4.55638e-18 -3.52677e-06 0)
(3.72885e-18 2.63845e-06 0)
(2.9867e-18 -1.9742e-06 0)
(2.47695e-18 1.4774e-06 0)
(2.03816e-18 -1.10579e-06 0)
(1.663e-18 8.27811e-07 0)
(1.34423e-18 -6.19877e-07 0)
(1.07523e-18 4.64349e-07 0)
(8.49916e-19 -3.48035e-07 0)
(6.62682e-19 2.6108e-07 0)
(5.08379e-19 -1.96113e-07 0)
(3.82334e-19 1.47638e-07 0)
(2.80358e-19 -1.11552e-07 0)
(2.07389e-19 8.48104e-08 0)
(1.44654e-19 -6.51529e-08 0)
(9.58337e-20 5.03663e-08 0)
(5.84232e-20 -3.80794e-08 0)
(3.02632e-20 2.80511e-08 0)
(9.51365e-21 -2.00384e-08 0)
(-5.37435e-21 1.38027e-08 0)
(-1.56823e-20 -9.10156e-09 0)
(-2.17544e-20 5.69845e-09 0)
(-2.51836e-20 -3.35528e-09 0)
(-2.66725e-20 1.84281e-09 0)
(-2.64752e-20 -9.39257e-10 0)
(-2.53324e-20 4.46617e-10 0)
(-2.36603e-20 -2.00545e-10 0)
(-2.16374e-20 8.68624e-11 0)
(-1.94508e-20 -3.66726e-11 0)
(-1.72353e-20 1.53916e-11 0)
(-1.50844e-20 -6.42502e-12 0)
(-1.30597e-20 2.72944e-12 0)
(-1.11983e-20 -1.15474e-12 0)
(-9.51904e-21 4.71617e-13 0)
(-8.0277e-21 -1.88918e-13 0)
(-6.72079e-21 9.88474e-14 0)
(-5.5887e-21 -1.04821e-14 0)
(-4.61802e-21 4.33108e-14 0)
(-3.79337e-21 2.98109e-14 0)
(-3.09857e-21 4.69221e-14 0)
(-2.51763e-21 4.73625e-14 0)
(-2.03531e-21 5.22743e-14 0)
(-1.6375e-21 5.40537e-14 0)
(-1.31138e-21 5.68043e-14 0)
(-1.04559e-21 5.65529e-14 0)
(-8.30137e-22 5.39036e-14 0)
(-6.56389e-22 5.43982e-14 0)
(-5.16972e-22 5.87604e-14 0)
(-4.05622e-22 5.97895e-14 0)
(-3.17079e-22 5.90723e-14 0)
(-2.46986e-22 5.76149e-14 0)
(-1.91724e-22 5.62778e-14 0)
(-1.48322e-22 5.20981e-14 0)
(-1.14371e-22 4.61534e-14 0)
(-8.79099e-23 4.09608e-14 0)
(-6.73573e-23 3.78388e-14 0)
(-5.14491e-23 3.22608e-14 0)
(-3.91821e-23 2.68514e-14 0)
(-2.97491e-23 1.8938e-14 0)
(-2.25207e-23 1.52824e-14 0)
(-1.69991e-23 2.81602e-15 0)
(-1.27941e-23 1.11252e-14 0)
(-9.60169e-24 6.87314e-15 0)
(-7.18524e-24 -9.25271e-15 0)
(-5.36158e-24 -4.63273e-15 0)
(-3.9896e-24 -7.44787e-15 0)
(-2.96081e-24 -6.49642e-15 0)
(-2.19072e-24 -7.24777e-15 0)
(-1.61718e-24 -6.83809e-15 0)
(-1.19019e-24 -6.54386e-15 0)
(-8.73983e-25 -6.35482e-15 0)
(-6.40222e-25 -6.56129e-15 0)
(-4.68136e-25 -6.44956e-15 0)
(-3.41877e-25 -6.24803e-15 0)
(-2.4938e-25 -5.98536e-15 0)
(-1.81829e-25 -5.73615e-15 0)
(-1.32567e-25 -5.33686e-15 0)
(-9.67745e-26 -4.84314e-15 0)
(-7.09051e-26 -4.54191e-15 0)
(-5.22474e-26 -4.46388e-15 0)
(-3.87457e-26 -4.30371e-15 0)
(-2.89178e-26 -4.06736e-15 0)
(-2.1929e-26 -3.8153e-15 0)
(-1.68251e-26 -3.56942e-15 0)
(-1.30396e-26 -3.24538e-15 0)
(-1.0364e-26 -2.86835e-15 0)
(-8.16921e-27 -2.51801e-15 0)
(-6.54288e-27 -2.21774e-15 0)
(-5.34773e-27 -1.86962e-15 0)
(-4.43197e-27 -1.51059e-15 0)
(-3.71589e-27 -1.11081e-15 0)
(-3.21821e-27 -7.60636e-16 0)
(-2.77285e-27 -3.35707e-16 0)
(-2.40565e-27 -5.32074e-16 0)
(-2.10466e-27 -3.35965e-16 0)
(-1.83334e-27 2.43991e-16 0)
(-1.58592e-27 1.98232e-16 0)
(-1.37596e-27 2.05538e-16 0)
(-1.20584e-27 1.71101e-16 0)
(-1.03908e-27 1.67099e-16 0)
(-9.03053e-28 1.43748e-16 0)
(-7.99708e-28 1.22582e-16 0)
(-6.77527e-28 1.05446e-16 0)
(-5.89169e-28 9.68836e-17 0)
(-4.92119e-28 8.52607e-17 0)
(-4.33277e-28 7.5354e-17 0)
(-3.70169e-28 6.54323e-17 0)
(-3.14649e-28 5.63332e-17 0)
(-2.71124e-28 4.81909e-17 0)
(-2.19286e-28 4.13024e-17 0)
(-1.83046e-28 3.49788e-17 0)
(-1.59511e-28 2.92694e-17 0)
(-1.28912e-28 2.46981e-17 0)
(-1.02883e-28 2.12919e-17 0)
(-8.68412e-29 1.81975e-17 0)
(-6.77673e-29 1.53307e-17 0)
(-5.67831e-29 1.35017e-17 0)
(-4.55282e-29 1.2524e-17 0)
(-3.25066e-29 1.13073e-17 0)
(-2.69872e-29 9.54334e-18 0)
(-2.20848e-29 8.36037e-18 0)
(-1.79798e-29 7.45419e-18 0)
(-1.29606e-29 6.9654e-18 0)
(-9.44264e-30 5.87666e-18 0)
(-7.52133e-30 3.56004e-18 0)
(-8.46084e-30 1.37667e-17 0)
(-1.22552e-30 1.34617e-17 0)
(-3.19402e-30 2.50921e-18 0)
(-2.27028e-30 3.97798e-18 0)
(-1.75289e-30 3.88956e-18 0)
(-1.37912e-30 3.24759e-18 0)
(-1.0273e-30 2.82999e-18 0)
(-1.01125e-30 2.20746e-18 0)
(-8.08158e-31 1.59011e-18 0)
(-1.01469e-30 1.00836e-18 0)
(-9.09612e-31 5.76715e-19 0)
(-1.23511e-30 2.49197e-19 0)
(-1.39213e-30 1.40015e-20 0)
(-1.55808e-30 -1.96293e-19 0)
(-1.73053e-30 -3.54224e-19 0)
(-1.69261e-30 -4.05092e-19 0)
(-2.32887e-30 -3.00348e-19 0)
(-2.73004e-30 -3.3885e-19 0)
(-2.20576e-30 -5.16199e-19 0)
(-2.35461e-30 -5.35527e-19 0)
(-2.72885e-30 -4.37204e-19 0)
(-2.87784e-30 -2.89198e-19 0)
(-3.01948e-30 -1.11199e-19 0)
(-2.94101e-30 1.76435e-19 0)
(-3.27563e-30 5.79138e-19 0)
(-2.99843e-30 1.11448e-18 0)
(-3.50227e-30 1.66821e-18 0)
(-3.45651e-30 2.26951e-18 0)
(-3.47305e-30 2.65366e-18 0)
(-3.75089e-30 3.36404e-18 0)
(-3.76912e-30 3.451e-18 0)
(-3.9021e-30 2.25947e-18 0)
(-3.79295e-30 1.2173e-17 0)
(-2.67036e-30 1.21623e-17 0)
(-3.85388e-30 2.22732e-18 0)
(-4.03613e-30 3.39663e-18 0)
(-3.77755e-30 3.28704e-18 0)
(-3.67014e-30 2.55338e-18 0)
(-3.32373e-30 2.14559e-18 0)
(-3.72212e-30 1.51916e-18 0)
(-3.2892e-30 9.40461e-19 0)
(-3.39191e-30 3.79292e-19 0)
(-3.0892e-30 -4.92933e-20 0)
(-2.96771e-30 -3.63321e-19 0)
(-2.84375e-30 -5.67468e-19 0)
(-2.50597e-30 -7.43904e-19 0)
(-2.77796e-30 -8.70671e-19 0)
(-2.63817e-30 -8.79618e-19 0)
(-2.28466e-30 -7.27253e-19 0)
(-2.35612e-30 -7.28352e-19 0)
(-2.19937e-30 -8.82885e-19 0)
(-2.47077e-30 -8.76094e-19 0)
(-1.49874e-30 -7.51401e-19 0)
(-1.76664e-30 -5.77081e-19 0)
(-1.61766e-30 -3.75027e-19 0)
(-1.48189e-30 -6.29429e-20 0)
(-1.35224e-30 3.63945e-19 0)
(-1.22911e-30 9.2265e-19 0)
(-1.11274e-30 1.49817e-18 0)
(-1.00327e-30 2.12203e-18 0)
(-9.00835e-31 2.52777e-18 0)
(-8.05599e-31 3.25964e-18 0)
(-7.17604e-31 3.36573e-18 0)
(-6.36775e-31 2.20169e-18 0)
(-5.62925e-31 1.21582e-17 0)
(-4.95779e-31 1.21778e-17 0)
(-4.34991e-31 2.25654e-18 0)
(-3.80164e-31 3.4528e-18 0)
(-3.30857e-31 3.36846e-18 0)
(-2.86598e-31 2.66089e-18 0)
(-2.4689e-31 2.2735e-18 0)
(-2.11216e-31 1.65131e-18 0)
(-1.79045e-31 1.05584e-18 0)
(-1.49839e-31 5.03505e-19 0)
(-1.23051e-31 9.9203e-20 0)
(-9.81304e-32 -2.20881e-19 0)
(-7.45286e-32 -4.72325e-19 0)
(-5.16971e-32 -6.99468e-19 0)
(-2.9092e-32 -8.89542e-19 0)
(-6.17597e-33 -1.00442e-18 0)
(1.7579e-32 -1.02394e-18 0)
(4.26879e-32 -1.11742e-18 0)
(6.96467e-32 -1.30274e-18 0)
(9.89239e-32 -1.41686e-18 0)
(1.30945e-31 -1.48533e-18 0)
(1.66072e-31 -1.5435e-18 0)
(2.04563e-31 -1.59791e-18 0)
(2.46526e-31 -1.60581e-18 0)
(2.91869e-31 -1.57145e-18 0)
(3.40281e-31 -1.57403e-18 0)
(3.91315e-31 -1.61308e-18 0)
(4.44583e-31 -1.60953e-18 0)
(4.99813e-31 -1.5582e-18 0)
(5.57016e-31 -1.50351e-18 0)
(6.24272e-31 -1.43783e-18 0)
(2.96172e-31 -1.32426e-18 0)
(7.60168e-31 -1.13694e-18 0)
(8.27408e-31 -1.0464e-18 0)
(9.01903e-31 -1.03306e-18 0)
(9.7418e-31 -9.1982e-19 0)
(1.04281e-30 -7.24687e-19 0)
(1.10663e-30 -4.91914e-19 0)
(1.1645e-30 -2.32439e-19 0)
(1.21523e-30 1.06327e-19 0)
(1.25733e-30 5.35047e-19 0)
(1.28892e-30 1.11233e-18 0)
(1.30791e-30 1.73516e-18 0)
(1.31259e-30 2.40201e-18 0)
(1.30324e-30 2.84014e-18 0)
(1.28496e-30 3.63462e-18 0)
(1.27042e-30 3.80238e-18 0)
(1.25689e-30 2.6357e-18 0)
(-1.0982e-30 1.20308e-17 0)
)
;

boundaryField
{
    inlet
    {
        type            cyclic;
    }
    outlet
    {
        type            cyclic;
    }
    top
    {
        type            zeroGradient;
    }
    bottom
    {
        type            fixedValue;
        value           uniform (0 0 0);
    }
    frontAndBackPlanes
    {
        type            empty;
    }
}


// ************************************************************************* //
