/*--------------------------------*- C++ -*----------------------------------*\
| =========                 |                                                 |
| \\      /  F ield         | OpenFOAM: The Open Source CFD Toolbox           |
|  \\    /   O peration     | Version:  v2006                                 |
|   \\  /    A nd           | Website:  www.openfoam.com                      |
|    \\/     M anipulation  |                                                 |
\*---------------------------------------------------------------------------*/
FoamFile
{
    version     2.0;
    format      ascii;
    class       volScalarField;
    location    "1400";
    object      p;
}
// * * * * * * * * * * * * * * * * * * * * * * * * * * * * * * * * * * * * * //

dimensions      [1 -1 -2 0 0 0 0];


internalField   nonuniform List<scalar> 
120
(
-0.422655
-5.08274
-9.74316
-14.4039
-19.065
-23.7265
-28.3883
-33.0505
-37.713
-42.3759
-47.0391
-51.7028
-56.3668
-61.0311
-65.6959
-70.3611
-75.0266
-79.6925
-84.3589
-89.0256
-93.6927
-98.3603
-103.028
-107.697
-112.365
-117.035
-121.704
-126.374
-131.045
-135.716
-140.387
-145.059
-149.732
-154.404
-159.078
-163.751
-168.426
-173.1
-177.775
-182.451
-187.127
-191.804
-196.481
-201.159
-205.838
-210.516
-215.196
-219.876
-224.557
-229.238
-233.92
-238.602
-243.285
-247.969
-252.653
-257.338
-262.024
-266.71
-271.398
-276.085
-280.774
-285.463
-290.153
-294.844
-299.535
-304.227
-308.92
-313.614
-318.308
-323.003
-327.699
-332.395
-337.092
-341.79
-346.488
-351.187
-355.887
-360.587
-365.288
-369.989
-374.691
-379.393
-384.096
-388.8
-393.503
-398.207
-402.911
-407.616
-412.321
-417.025
-421.706
-426.366
-431.027
-435.687
-440.346
-445.006
-449.666
-454.326
-458.985
-463.645
-468.305
-472.965
-477.624
-482.284
-486.944
-491.604
-496.263
-500.923
-505.583
-510.243
-514.902
-519.562
-524.222
-528.882
-533.541
-538.201
-542.861
-547.521
-552.18
-556.84
)
;

boundaryField
{
    inlet
    {
        type            cyclic;
    }
    outlet
    {
        type            cyclic;
    }
    top
    {
        type            calculated;
        value           uniform -559.17;
    }
    bottom
    {
        type            calculated;
        value           uniform 1.90722;
    }
    frontAndBackPlanes
    {
        type            empty;
    }
}


// ************************************************************************* //
