/*--------------------------------*- C++ -*----------------------------------*\
| =========                 |                                                 |
| \\      /  F ield         | OpenFOAM: The Open Source CFD Toolbox           |
|  \\    /   O peration     | Version:  v2006                                 |
|   \\  /    A nd           | Website:  www.openfoam.com                      |
|    \\/     M anipulation  |                                                 |
\*---------------------------------------------------------------------------*/
FoamFile
{
    version     2.0;
    format      ascii;
    class       volScalarField;
    location    "1400";
    object      p_p_total;
}
// * * * * * * * * * * * * * * * * * * * * * * * * * * * * * * * * * * * * * //

dimensions      [1 -1 -2 0 0 0 0];


internalField   nonuniform List<scalar> 
120
(
24.6347
24.3407
24.0471
23.7538
23.4609
23.1684
22.8762
22.5843
22.2928
22.0017
21.711
21.4206
21.1306
20.841
20.5518
20.2629
19.9745
19.6864
19.3987
19.1114
18.8245
18.538
18.2519
17.9662
17.681
17.3961
17.1116
16.8276
16.544
16.2608
15.978
15.6957
15.4139
15.1325
14.8516
14.5711
14.2912
14.0117
13.7327
13.4543
13.1764
12.8991
12.6223
12.3461
12.0704
11.7954
11.521
11.2471
10.974
10.7014
10.4295
10.1582
9.88758
9.6176
9.34825
9.07954
8.81146
8.54401
8.27715
8.0109
7.74522
7.4801
7.21553
6.95148
6.68793
6.42487
6.16226
5.9001
5.63836
5.37702
5.11606
4.85546
4.59522
4.3353
4.07569
3.81639
3.55736
3.29861
3.0401
2.78183
2.52375
2.26585
2.00807
1.7503
1.49232
1.23382
0.974376
0.707656
0.444132
0.166643
0
0
0
0
0
0
0
0
0
0
0
0
0
0
0
0
0
0
0
0
0
0
0
0
0
0
0
0
0
0
)
;

boundaryField
{
    inlet
    {
        type            cyclic;
    }
    outlet
    {
        type            cyclic;
    }
    top
    {
        type            calculated;
        value           uniform 0;
    }
    bottom
    {
        type            calculated;
        value           uniform 24.6347;
    }
    frontAndBackPlanes
    {
        type            empty;
    }
}


// ************************************************************************* //
