/*--------------------------------*- C++ -*----------------------------------*\
| =========                 |                                                 |
| \\      /  F ield         | OpenFOAM: The Open Source CFD Toolbox           |
|  \\    /   O peration     | Version:  v2006                                 |
|   \\  /    A nd           | Website:  www.openfoam.com                      |
|    \\/     M anipulation  |                                                 |
\*---------------------------------------------------------------------------*/
FoamFile
{
    version     2.0;
    format      ascii;
    class       surfaceScalarField;
    location    "1400";
    object      phia;
}
// * * * * * * * * * * * * * * * * * * * * * * * * * * * * * * * * * * * * * //

dimensions      [0 3 -1 0 0 0 0];
oriented        oriented;


internalField   nonuniform List<scalar> 
119
(
-8.38627e-16
-1.68746e-15
-2.54661e-15
-3.41619e-15
-4.29632e-15
-5.18711e-15
-6.08867e-15
-7.00111e-15
-7.92452e-15
-8.85903e-15
-9.80472e-15
-1.07617e-14
-1.173e-14
-1.27098e-14
-1.37011e-14
-1.47041e-14
-1.57187e-14
-1.67452e-14
-1.77835e-14
-1.88339e-14
-1.98964e-14
-2.09711e-14
-2.20583e-14
-2.31581e-14
-2.42707e-14
-2.53965e-14
-2.65357e-14
-2.76887e-14
-2.88559e-14
-3.00379e-14
-3.12352e-14
-3.24486e-14
-3.36787e-14
-3.49264e-14
-3.61926e-14
-3.74784e-14
-3.87849e-14
-4.01132e-14
-4.14648e-14
-4.28408e-14
-4.42428e-14
-4.56721e-14
-4.71302e-14
-4.86186e-14
-5.01386e-14
-5.16917e-14
-5.32791e-14
-5.4902e-14
-5.65612e-14
-5.82577e-14
-5.9992e-14
-6.17644e-14
-6.3575e-14
-6.54235e-14
-6.73093e-14
-6.92317e-14
-7.11894e-14
-7.31808e-14
-7.52041e-14
-7.72573e-14
-7.93379e-14
-8.14433e-14
-8.35708e-14
-8.57173e-14
-8.78798e-14
-9.00552e-14
-9.22404e-14
-9.44322e-14
-9.66277e-14
-9.8824e-14
-1.01018e-13
-1.03209e-13
-1.05392e-13
-1.07567e-13
-1.09731e-13
-1.11884e-13
-1.14024e-13
-1.16151e-13
-1.18265e-13
-1.20367e-13
-1.22459e-13
-1.24547e-13
-1.2664e-13
-1.28757e-13
-1.3094e-13
-1.3329e-13
-1.35978e-13
-1.39093e-13
-1.42713e-13
-2.4733e-13
-9.46344e-13
-7.03305e-11
-5.43637e-11
-8.1937e-11
-8.22717e-11
-8.22742e-11
-8.22764e-11
-8.22766e-11
-8.22766e-11
-8.22766e-11
-8.22766e-11
-8.22766e-11
-8.22766e-11
-8.22766e-11
-8.22766e-11
-8.22766e-11
-8.22766e-11
-8.22766e-11
-8.22766e-11
-8.22766e-11
-8.22766e-11
-8.22766e-11
-8.22766e-11
-8.22766e-11
-8.22766e-11
-8.22766e-11
-8.22766e-11
-8.22565e-11
-8.21697e-11
)
;

boundaryField
{
    inlet
    {
        type            cyclic;
        value           nonuniform List<scalar> 
120
(
-8.36223e-28
-2.51025e-27
-4.18793e-27
-5.84134e-27
-7.50329e-27
-9.17626e-27
-1.08627e-26
-1.25043e-26
-1.41642e-26
-1.59059e-26
-1.76709e-26
-1.94617e-26
-2.13417e-26
-2.32526e-26
-2.5197e-26
-2.71774e-26
-2.91965e-26
-3.12568e-26
-3.3361e-26
-3.55118e-26
-3.77119e-26
-3.99641e-26
-4.22713e-26
-4.46362e-26
-4.7305e-26
-5.00376e-26
-5.28371e-26
-5.55851e-26
-5.84066e-26
-6.1305e-26
-6.40407e-26
-6.66172e-26
-6.92818e-26
-7.20383e-26
-7.48911e-26
-7.7842e-26
-8.11412e-26
-8.47964e-26
-8.83234e-26
-9.2214e-26
-9.57443e-26
-9.96497e-26
-1.0345e-25
-1.07394e-25
-1.1149e-25
-1.15985e-25
-1.20159e-25
-1.24505e-25
-1.28785e-25
-1.33737e-25
-1.38882e-25
-1.44225e-25
-1.49773e-25
-1.55532e-25
-1.61508e-25
-1.67946e-25
-1.74609e-25
-1.81498e-25
-1.88619e-25
-1.95479e-25
-2.02558e-25
-2.09856e-25
-2.17366e-25
-2.25078e-25
-2.32979e-25
-2.40567e-25
-2.488e-25
-2.57168e-25
-2.65646e-25
-2.74207e-25
-2.8282e-25
-2.9096e-25
-2.9908e-25
-3.0714e-25
-3.15097e-25
-3.22906e-25
-3.3052e-25
-3.37891e-25
-3.4497e-25
-3.51707e-25
-3.58053e-25
-3.63961e-25
-3.69385e-25
-3.74281e-25
-3.78611e-25
-3.82339e-25
-3.84431e-25
-3.85868e-25
-3.86632e-25
-3.86951e-25
-3.87558e-25
-8.40419e-25
-1.57108e-24
-2.29504e-24
-2.99129e-24
-3.64886e-24
-4.25876e-24
-4.81253e-24
-5.30279e-24
-5.72382e-24
-6.07101e-24
-6.34135e-24
-6.53287e-24
-6.64507e-24
-6.67846e-24
-6.63471e-24
-6.51645e-24
-6.32706e-24
-6.07069e-24
-5.75199e-24
-5.376e-24
-4.94809e-24
-4.47376e-24
-3.95872e-24
-3.40844e-24
-2.82864e-24
-2.22481e-24
-1.60242e-24
-9.66831e-25
-3.23392e-25
)
;
    }
    outlet
    {
        type            cyclic;
        value           nonuniform List<scalar> 
120
(
8.36223e-28
2.51025e-27
4.18793e-27
5.84134e-27
7.50329e-27
9.17626e-27
1.08627e-26
1.25043e-26
1.41642e-26
1.59059e-26
1.76709e-26
1.94617e-26
2.13417e-26
2.32526e-26
2.5197e-26
2.71774e-26
2.91965e-26
3.12568e-26
3.3361e-26
3.55118e-26
3.77119e-26
3.99641e-26
4.22713e-26
4.46362e-26
4.7305e-26
5.00376e-26
5.28371e-26
5.55851e-26
5.84066e-26
6.1305e-26
6.40407e-26
6.66172e-26
6.92818e-26
7.20383e-26
7.48911e-26
7.7842e-26
8.11412e-26
8.47964e-26
8.83234e-26
9.2214e-26
9.57443e-26
9.96497e-26
1.0345e-25
1.07394e-25
1.1149e-25
1.15985e-25
1.20159e-25
1.24505e-25
1.28785e-25
1.33737e-25
1.38882e-25
1.44225e-25
1.49773e-25
1.55532e-25
1.61508e-25
1.67946e-25
1.74609e-25
1.81498e-25
1.88619e-25
1.95479e-25
2.02558e-25
2.09856e-25
2.17366e-25
2.25078e-25
2.32979e-25
2.40567e-25
2.488e-25
2.57168e-25
2.65646e-25
2.74207e-25
2.8282e-25
2.9096e-25
2.9908e-25
3.0714e-25
3.15097e-25
3.22906e-25
3.3052e-25
3.37891e-25
3.4497e-25
3.51707e-25
3.58053e-25
3.63961e-25
3.69385e-25
3.74281e-25
3.78611e-25
3.82339e-25
3.84431e-25
3.85868e-25
3.86632e-25
3.86951e-25
3.87558e-25
8.40419e-25
1.57108e-24
2.29504e-24
2.99129e-24
3.64886e-24
4.25876e-24
4.81253e-24
5.30279e-24
5.72382e-24
6.07101e-24
6.34135e-24
6.53287e-24
6.64507e-24
6.67846e-24
6.63471e-24
6.51645e-24
6.32706e-24
6.07069e-24
5.75199e-24
5.376e-24
4.94809e-24
4.47376e-24
3.95872e-24
3.40844e-24
2.82864e-24
2.22481e-24
1.60242e-24
9.66831e-25
3.23392e-25
)
;
    }
    top
    {
        type            fixedValue;
        value           uniform 0;
    }
    bottom
    {
        type            fixedValue;
        value           uniform 0;
    }
    frontAndBackPlanes
    {
        type            empty;
        value           nonuniform List<scalar> 0();
    }
}


// ************************************************************************* //
