/*--------------------------------*- C++ -*----------------------------------*\
| =========                 |                                                 |
| \\      /  F ield         | OpenFOAM: The Open Source CFD Toolbox           |
|  \\    /   O peration     | Version:  v2006                                 |
|   \\  /    A nd           | Website:  www.openfoam.com                      |
|    \\/     M anipulation  |                                                 |
\*---------------------------------------------------------------------------*/
FoamFile
{
    version     2.0;
    format      ascii;
    class       surfaceScalarField;
    location    "1400";
    object      phib;
}
// * * * * * * * * * * * * * * * * * * * * * * * * * * * * * * * * * * * * * //

dimensions      [0 3 -1 0 0 0 0];
oriented        oriented;


internalField   nonuniform List<scalar> 
119
(
1.25692e-15
2.5286e-15
3.81521e-15
5.1169e-15
6.43381e-15
7.7661e-15
9.1139e-15
1.04774e-14
1.18566e-14
1.32518e-14
1.46631e-14
1.60905e-14
1.75342e-14
1.89942e-14
2.04708e-14
2.19639e-14
2.34737e-14
2.50003e-14
2.65438e-14
2.81043e-14
2.9682e-14
3.12771e-14
3.28896e-14
3.452e-14
3.61685e-14
3.78355e-14
3.95214e-14
4.12267e-14
4.2952e-14
4.4698e-14
4.64656e-14
4.82557e-14
5.00693e-14
5.19077e-14
5.37721e-14
5.56641e-14
5.75851e-14
5.95371e-14
6.15216e-14
6.35407e-14
6.55964e-14
6.76907e-14
6.98255e-14
7.20031e-14
7.42253e-14
7.6494e-14
7.8811e-14
8.11778e-14
8.35957e-14
8.60657e-14
8.85884e-14
9.11643e-14
9.37929e-14
9.6474e-14
9.92062e-14
1.01988e-13
1.04818e-13
1.07693e-13
1.1061e-13
1.13566e-13
1.16557e-13
1.19578e-13
1.22626e-13
1.25695e-13
1.28781e-13
1.31878e-13
1.34981e-13
1.38086e-13
1.41186e-13
1.44278e-13
1.47356e-13
1.50417e-13
1.53454e-13
1.56466e-13
1.59446e-13
1.62393e-13
1.65301e-13
1.68169e-13
1.70993e-13
1.73771e-13
1.76502e-13
1.79186e-13
1.81827e-13
1.8444e-13
1.87066e-13
1.89812e-13
1.92853e-13
1.96185e-13
1.99423e-13
2.4838e-13
2.57832e-13
2.67835e-13
2.35842e-15
1.13794e-18
1.07931e-18
1.11138e-18
1.1135e-18
1.18733e-18
1.18665e-18
1.22492e-18
1.18438e-18
1.18021e-18
1.10197e-18
1.08452e-18
1.03498e-18
1.04743e-18
1.00403e-18
9.93511e-19
9.28919e-19
8.91769e-19
8.08231e-19
7.65586e-19
7.0808e-19
6.92495e-19
6.51323e-19
6.33181e-19
5.90681e-19
5.68382e-19
5.23588e-19
)
;

boundaryField
{
    inlet
    {
        type            cyclic;
        value           nonuniform List<scalar> 
120
(
-8.36223e-28
-2.51026e-27
-4.19096e-27
-5.84135e-27
-7.50329e-27
-9.17633e-27
-1.08792e-26
-1.25042e-26
-1.41422e-26
-1.59058e-26
-1.76707e-26
-1.94313e-26
-2.13416e-26
-2.32526e-26
-2.5197e-26
-2.71774e-26
-2.91965e-26
-3.12568e-26
-3.3361e-26
-3.55118e-26
-3.77119e-26
-3.99641e-26
-4.22701e-26
-4.4368e-26
-4.73038e-26
-5.00382e-26
-5.29911e-26
-5.55858e-26
-5.84082e-26
-6.16559e-26
-6.44055e-26
-6.66188e-26
-6.92818e-26
-7.20383e-26
-7.48892e-26
-7.74033e-26
-8.06894e-26
-8.52597e-26
-8.78466e-26
-9.32083e-26
-9.52354e-26
-1.0018e-25
-1.03452e-25
-1.07392e-25
-1.1091e-25
-1.17188e-25
-1.20167e-25
-1.25139e-25
-1.2747e-25
-1.33731e-25
-1.38882e-25
-1.44225e-25
-1.49773e-25
-1.55529e-25
-1.60724e-25
-1.67943e-25
-1.74609e-25
-1.81506e-25
-1.90369e-25
-1.95487e-25
-2.02558e-25
-2.09856e-25
-2.17366e-25
-2.25087e-25
-2.35014e-25
-2.38481e-25
-2.48791e-25
-2.57168e-25
-2.65646e-25
-2.74218e-25
-2.85169e-25
-2.90971e-25
-2.9908e-25
-3.0714e-25
-3.15097e-25
-3.22906e-25
-3.3052e-25
-3.37891e-25
-3.4497e-25
-3.51707e-25
-3.58053e-25
-3.63961e-25
-3.69385e-25
-3.74281e-25
-3.7864e-25
-3.8847e-25
-3.84461e-25
-3.85868e-25
-3.86634e-25
-3.86984e-25
-3.93439e-25
-8.41616e-25
-1.57241e-24
-2.29561e-24
-2.9912e-24
-3.64877e-24
-4.2587e-24
-4.81243e-24
-5.30273e-24
-5.72374e-24
-6.07097e-24
-6.34128e-24
-6.53283e-24
-6.64503e-24
-6.67843e-24
-6.6347e-24
-6.51644e-24
-6.32707e-24
-6.0707e-24
-5.75201e-24
-5.37603e-24
-4.94813e-24
-4.47383e-24
-3.95874e-24
-3.4085e-24
-2.8287e-24
-2.22488e-24
-1.60248e-24
-9.669e-25
-3.23428e-25
)
;
    }
    outlet
    {
        type            cyclic;
        value           nonuniform List<scalar> 
120
(
8.36223e-28
2.51026e-27
4.19096e-27
5.84135e-27
7.50329e-27
9.17633e-27
1.08792e-26
1.25042e-26
1.41422e-26
1.59058e-26
1.76707e-26
1.94313e-26
2.13416e-26
2.32526e-26
2.5197e-26
2.71774e-26
2.91965e-26
3.12568e-26
3.3361e-26
3.55118e-26
3.77119e-26
3.99641e-26
4.22701e-26
4.4368e-26
4.73038e-26
5.00382e-26
5.29911e-26
5.55858e-26
5.84082e-26
6.16559e-26
6.44055e-26
6.66188e-26
6.92818e-26
7.20383e-26
7.48892e-26
7.74033e-26
8.06894e-26
8.52597e-26
8.78466e-26
9.32083e-26
9.52354e-26
1.0018e-25
1.03452e-25
1.07392e-25
1.1091e-25
1.17188e-25
1.20167e-25
1.25139e-25
1.2747e-25
1.33731e-25
1.38882e-25
1.44225e-25
1.49773e-25
1.55529e-25
1.60724e-25
1.67943e-25
1.74609e-25
1.81506e-25
1.90369e-25
1.95487e-25
2.02558e-25
2.09856e-25
2.17366e-25
2.25087e-25
2.35014e-25
2.38481e-25
2.48791e-25
2.57168e-25
2.65646e-25
2.74218e-25
2.85169e-25
2.90971e-25
2.9908e-25
3.0714e-25
3.15097e-25
3.22906e-25
3.3052e-25
3.37891e-25
3.4497e-25
3.51707e-25
3.58053e-25
3.63961e-25
3.69385e-25
3.74281e-25
3.7864e-25
3.8847e-25
3.84461e-25
3.85868e-25
3.86634e-25
3.86984e-25
3.93439e-25
8.41616e-25
1.57241e-24
2.29561e-24
2.9912e-24
3.64877e-24
4.2587e-24
4.81243e-24
5.30273e-24
5.72374e-24
6.07097e-24
6.34128e-24
6.53283e-24
6.64503e-24
6.67843e-24
6.6347e-24
6.51644e-24
6.32707e-24
6.0707e-24
5.75201e-24
5.37603e-24
4.94813e-24
4.47383e-24
3.95874e-24
3.4085e-24
2.8287e-24
2.22488e-24
1.60248e-24
9.669e-25
3.23428e-25
)
;
    }
    top
    {
        type            fixedValue;
        value           uniform 0;
    }
    bottom
    {
        type            fixedValue;
        value           uniform 0;
    }
    frontAndBackPlanes
    {
        type            empty;
        value           nonuniform List<scalar> 0();
    }
}


// ************************************************************************* //
