/*--------------------------------*- C++ -*----------------------------------*\
| =========                 |                                                 |
| \\      /  F ield         | OpenFOAM: The Open Source CFD Toolbox           |
|  \\    /   O peration     | Version:  v2006                                 |
|   \\  /    A nd           | Website:  www.openfoam.com                      |
|    \\/     M anipulation  |                                                 |
\*---------------------------------------------------------------------------*/
FoamFile
{
    version     2.0;
    format      ascii;
    class       volTensorField;
    location    "1400";
    object      Taua;
}
// * * * * * * * * * * * * * * * * * * * * * * * * * * * * * * * * * * * * * //

dimensions      [1 -1 -2 0 0 0 0];


internalField   nonuniform List<tensor> 
120
(
(0.00163229 0 0 1.17126e-14 -0.00326459 0 0 0 0.00163229)
(0.00164886 0 0 1.1731e-14 -0.00329772 0 0 0 0.00164886)
(0.00167044 0 0 1.16588e-14 -0.00334088 0 0 0 0.00167044)
(0.00169098 0 0 1.16038e-14 -0.00338196 0 0 0 0.00169098)
(0.00171138 0 0 1.16722e-14 -0.00342276 0 0 0 0.00171138)
(0.00173208 0 0 1.17579e-14 -0.00346416 0 0 0 0.00173208)
(0.00175303 0 0 1.1648e-14 -0.00350606 0 0 0 0.00175303)
(0.00177418 0 0 1.15555e-14 -0.00354836 0 0 0 0.00177418)
(0.00179554 0 0 1.19056e-14 -0.00359107 0 0 0 0.00179554)
(0.00181709 0 0 1.22731e-14 -0.00363418 0 0 0 0.00181709)
(0.00183883 0 0 1.24454e-14 -0.00367767 0 0 0 0.00183883)
(0.00186076 0 0 1.2848e-14 -0.00372152 0 0 0 0.00186076)
(0.00188286 0 0 1.32682e-14 -0.00376573 0 0 0 0.00188286)
(0.00190514 0 0 1.34936e-14 -0.00381027 0 0 0 0.00190514)
(0.00192758 0 0 1.37368e-14 -0.00385515 0 0 0 0.00192758)
(0.00195018 0 0 1.39982e-14 -0.00390036 0 0 0 0.00195018)
(0.00197295 0 0 1.42778e-14 -0.00394591 0 0 0 0.00197295)
(0.0019959 0 0 1.45758e-14 -0.0039918 0 0 0 0.0019959)
(0.00201903 0 0 1.48926e-14 -0.00403807 0 0 0 0.00201903)
(0.00204238 0 0 1.52283e-14 -0.00408475 0 0 0 0.00204238)
(0.00206595 0 0 1.55832e-14 -0.0041319 0 0 0 0.00206595)
(0.00208979 0 0 1.59577e-14 -0.00417959 0 0 0 0.00208979)
(0.00211396 0 0 1.63521e-14 -0.00422791 0 0 0 0.00211396)
(0.00213849 0 0 1.7618e-14 -0.00427698 0 0 0 0.00213849)
(0.00216347 0 0 1.89049e-14 -0.00432693 0 0 0 0.00216347)
(0.00218897 0 0 1.93623e-14 -0.00437794 0 0 0 0.00218897)
(0.00221509 0 0 1.94164e-14 -0.00443018 0 0 0 0.00221509)
(0.00224194 0 0 1.94935e-14 -0.00448389 0 0 0 0.00224194)
(0.00226965 0 0 2.00197e-14 -0.00453929 0 0 0 0.00226965)
(0.00229834 0 0 1.97191e-14 -0.00459668 0 0 0 0.00229834)
(0.00232816 0 0 1.85927e-14 -0.00465633 0 0 0 0.00232816)
(0.00235928 0 0 1.83439e-14 -0.00471857 0 0 0 0.00235928)
(0.00239187 0 0 1.89739e-14 -0.00478374 0 0 0 0.00239187)
(0.00242609 0 0 1.96328e-14 -0.00485218 0 0 0 0.00242609)
(0.00246213 0 0 2.03127e-14 -0.00492426 0 0 0 0.00246213)
(0.00250017 3.68135e-17 0 2.18753e-14 -0.00500034 0 0 0 0.00250017)
(0.00254038 0 0 2.43405e-14 -0.00508076 0 0 0 0.00254038)
(0.00258293 0 0 2.51376e-14 -0.00516585 0 0 0 0.00258293)
(0.00262796 0 0 2.59618e-14 -0.00525592 0 0 0 0.00262796)
(0.00267562 0 0 2.59733e-14 -0.00535124 0 0 0 0.00267562)
(0.00272601 0 0 2.60247e-14 -0.00545201 0 0 0 0.00272601)
(0.00277919 0 0 2.69692e-14 -0.00555838 0 0 0 0.00277919)
(0.00283521 0 0 2.71061e-14 -0.00567042 0 0 0 0.00283521)
(0.00289405 0 0 2.81389e-14 -0.0057881 0 0 0 0.00289405)
(0.00295564 0 0 3.00687e-14 -0.00591129 0 0 0 0.00295564)
(0.00301988 0 0 3.03445e-14 -0.00603976 0 0 0 0.00301988)
(0.00308657 0 0 2.98177e-14 -0.00617314 0 0 0 0.00308657)
(0.00315548 0 0 3.0191e-14 -0.00631097 0 0 0 0.00315548)
(0.00322631 0 0 3.23144e-14 -0.00645262 0 0 0 0.00322631)
(0.00329868 0 0 3.53368e-14 -0.00659736 0 0 0 0.00329868)
(0.00337217 0 0 3.67058e-14 -0.00674434 0 0 0 0.00337217)
(0.00344629 0 0 3.81198e-14 -0.00689258 0 0 0 0.00344629)
(0.00352051 0 0 3.95762e-14 -0.00704102 0 0 0 0.00352051)
(0.00359426 0 0 4.10711e-14 -0.00718852 0 0 0 0.00359426)
(0.00366692 0 0 4.34496e-14 -0.00733384 0 0 0 0.00366692)
(0.00373788 0 0 4.58559e-14 -0.00747576 0 0 0 0.00373788)
(0.0038065 0 0 4.74315e-14 -0.007613 0 0 0 0.0038065)
(0.00387216 0 0 4.90332e-14 -0.00774433 0 0 0 0.00387216)
(0.00393427 -7.36271e-17 0 4.89334e-14 -0.00786854 0 0 0 0.00393427)
(0.00399226 0 0 4.87891e-14 -0.00798452 0 0 0 0.00399226)
(0.00404562 0 0 5.03204e-14 -0.00809124 0 0 0 0.00404562)
(0.0040939 0 0 5.18263e-14 -0.0081878 0 0 0 0.0040939)
(0.00413673 0 0 5.3274e-14 -0.00827345 0 0 0 0.00413673)
(0.0041738 0 0 5.46456e-14 -0.00834761 0 0 0 0.0041738)
(0.00420493 0 0 5.42139e-14 -0.00840985 0 0 0 0.00420493)
(0.00422999 0 0 5.53738e-14 -0.00845998 0 0 0 0.00422999)
(0.00424897 0 0 5.81024e-14 -0.00849795 0 0 0 0.00424897)
(0.00426196 0 0 5.8962e-14 -0.00852392 0 0 0 0.00426196)
(0.00426911 0 0 5.96383e-14 -0.00853822 0 0 0 0.00426911)
(0.00427068 0 0 6.01088e-14 -0.00854136 0 0 0 0.00427068)
(0.004267 0 0 5.86338e-14 -0.008534 0 0 0 0.004267)
(0.00425847 0 0 5.69085e-14 -0.00851693 0 0 0 0.00425847)
(0.00424554 0 0 5.66289e-14 -0.00849108 0 0 0 0.00424554)
(0.00422873 0 0 5.60589e-14 -0.00845746 0 0 0 0.00422873)
(0.00420863 0 0 5.51813e-14 -0.00841725 0 0 0 0.00420863)
(0.00418587 0 0 5.39817e-14 -0.00837175 0 0 0 0.00418587)
(0.00416123 0 0 5.24488e-14 -0.00832246 0 0 0 0.00416123)
(0.00413562 0 0 5.05746e-14 -0.00827124 0 0 0 0.00413562)
(0.00411029 0 0 4.83554e-14 -0.00822059 0 0 0 0.00411029)
(0.00408712 0 0 4.57918e-14 -0.00817424 0 0 0 0.00408712)
(0.0040689 0 0 4.28897e-14 -0.00813779 0 0 0 0.0040689)
(0.00405924 0 0 3.96601e-14 -0.00811849 0 0 0 0.00405924)
(0.00406533 0 0 3.61201e-14 -0.00813065 0 0 0 0.00406533)
(0.00411442 0 0 3.22923e-14 -0.00822885 0 0 0 0.00411442)
(0.00426543 0 0 2.82034e-14 -0.00853085 0 0 0 0.00426543)
(0.00452384 0 0 2.03716e-14 -0.00904768 0 0 0 0.00452384)
(0.00491919 0 0 1.23518e-14 -0.00983838 0 0 0 0.00491919)
(0.0067985 0 0 7.70321e-15 -0.013597 0 0 0 0.0067985)
(0.0177392 0 0 3.79067e-15 -0.0354785 0 0 0 0.0177392)
(0.00919703 0 0 2.90501e-16 -0.0183941 0 0 0 0.00919703)
(1.50603e-05 0 0 6.6775e-19 -3.01205e-05 0 0 0 1.50603e-05)
(4.42314e-07 0 0 3.10708e-20 -8.84628e-07 0 0 0 4.42314e-07)
(2.61406e-09 0 0 4.41498e-22 -5.22812e-09 0 0 0 2.61406e-09)
(4.11815e-17 0 0 9.85946e-30 -8.2363e-17 0 0 0 4.11815e-17)
(3.0889e-25 0 0 1.05146e-37 -6.1778e-25 0 0 0 3.0889e-25)
(2.10503e-36 0 0 1.13023e-45 -4.21007e-36 0 0 0 2.10503e-36)
(-1.04113e-43 0 0 1.9216e-53 2.08226e-43 0 0 0 -1.04113e-43)
(1.51378e-51 0 0 4.34736e-61 -3.02756e-51 0 0 0 1.51378e-51)
(7.49538e-60 0 0 1.05292e-68 -1.49908e-59 0 0 0 7.49538e-60)
(-7.30025e-68 0 0 2.31623e-76 1.46005e-67 0 0 0 -7.30025e-68)
(-4.68595e-76 0 0 4.73659e-84 9.37189e-76 0 0 0 -4.68595e-76)
(3.26273e-84 0 0 9.0897e-92 -6.52546e-84 0 0 0 3.26273e-84)
(4.66475e-92 0 0 2.53106e-99 -9.3295e-92 0 0 0 4.66475e-92)
(-8.59512e-100 0 0 1.19855e-106 1.71902e-99 0 0 0 -8.59512e-100)
(-5.45673e-107 0 0 -1.18967e-114 1.09135e-106 0 0 0 -5.45673e-107)
(1.09872e-114 0 0 -2.5193e-120 -2.19744e-114 0 0 0 1.09872e-114)
(1.06736e-121 0 0 -6.29639e-127 -2.13473e-121 0 0 0 1.06736e-121)
(3.59661e-129 0 0 -1.10291e-133 -7.19323e-129 0 0 0 3.59661e-129)
(6.1189e-136 0 0 -1.64301e-140 -1.22378e-135 0 0 0 6.1189e-136)
(9.6001e-143 0 0 -2.08841e-147 -1.92002e-142 0 0 0 9.6001e-143)
(1.08622e-149 0 0 -2.42146e-154 -2.17243e-149 0 0 0 1.08622e-149)
(9.01267e-157 0 0 -2.5011e-161 -1.80253e-156 0 0 0 9.01267e-157)
(5.88917e-164 0 0 -2.49018e-168 -1.17783e-163 0 0 0 5.88917e-164)
(-3.42317e-170 0 0 -2.3857e-175 6.84635e-170 0 0 0 -3.42317e-170)
(-5.6818e-177 0 0 -2.33906e-182 1.13636e-176 0 0 0 -5.6818e-177)
(-9.93374e-183 0 0 -2.2194e-189 1.98675e-182 0 0 0 -9.93374e-183)
(-4.68203e-187 0 0 -2.06101e-196 9.36406e-187 0 0 0 -4.68203e-187)
(-9.10874e-194 0 0 -1.75553e-203 1.82175e-193 0 0 0 -9.10874e-194)
(-5.16538e-200 0 0 -1.39727e-210 1.03308e-199 0 0 0 -5.16538e-200)
(-3.49223e-204 0 0 -9.86966e-218 6.98447e-204 0 0 0 -3.49223e-204)
)
;

boundaryField
{
    inlet
    {
        type            cyclic;
    }
    outlet
    {
        type            cyclic;
    }
    top
    {
        type            extrapolatedCalculated;
        value           uniform (-6.9778e-204 0 0 -9.89526e-218 1.39556e-203 0 0 0 -6.9778e-204);
    }
    bottom
    {
        type            extrapolatedCalculated;
        value           uniform (0.00162689 0 0 1.17071e-14 -0.00325378 0 0 0 0.00162689);
    }
    frontAndBackPlanes
    {
        type            empty;
    }
}


// ************************************************************************* //
