/*--------------------------------*- C++ -*----------------------------------*\
| =========                 |                                                 |
| \\      /  F ield         | OpenFOAM: The Open Source CFD Toolbox           |
|  \\    /   O peration     | Version:  v2006                                 |
|   \\  /    A nd           | Website:  www.openfoam.com                      |
|    \\/     M anipulation  |                                                 |
\*---------------------------------------------------------------------------*/
FoamFile
{
    version     2.0;
    format      ascii;
    class       volTensorField;
    location    "1400";
    object      Taub;
}
// * * * * * * * * * * * * * * * * * * * * * * * * * * * * * * * * * * * * * //

dimensions      [1 -1 -2 0 0 0 0];


internalField   nonuniform List<tensor> 
120
(
(-1.16874e-07 0 0 5.5758e-19 2.33747e-07 0 0 0 -1.16874e-07)
(-1.17757e-07 0 0 5.58927e-19 2.35515e-07 0 0 0 -1.17757e-07)
(-1.19063e-07 0 0 5.5496e-19 2.38126e-07 0 0 0 -1.19063e-07)
(-1.20471e-07 0 0 5.51807e-19 2.40943e-07 0 0 0 -1.20471e-07)
(-1.21879e-07 0 0 5.55552e-19 2.43759e-07 0 0 0 -1.21879e-07)
(-1.23297e-07 0 0 5.62348e-19 2.46594e-07 0 0 0 -1.23297e-07)
(-1.24726e-07 0 0 5.54317e-19 2.49452e-07 0 0 0 -1.24726e-07)
(-1.26169e-07 0 0 5.43475e-19 2.52337e-07 0 0 0 -1.26169e-07)
(-1.27623e-07 0 0 5.66517e-19 2.55247e-07 0 0 0 -1.27623e-07)
(-1.2909e-07 0 0 5.87628e-19 2.58179e-07 0 0 0 -1.2909e-07)
(-1.30567e-07 0 0 5.87106e-19 2.61134e-07 0 0 0 -1.30567e-07)
(-1.32055e-07 0 0 6.11273e-19 2.64109e-07 0 0 0 -1.32055e-07)
(-1.33552e-07 0 0 6.36292e-19 2.67104e-07 0 0 0 -1.33552e-07)
(-1.35059e-07 0 0 6.41936e-19 2.70119e-07 0 0 0 -1.35059e-07)
(-1.36576e-07 0 0 6.53449e-19 2.73152e-07 0 0 0 -1.36576e-07)
(-1.38102e-07 0 0 6.65842e-19 2.76204e-07 0 0 0 -1.38102e-07)
(-1.39637e-07 0 0 6.79102e-19 2.79275e-07 0 0 0 -1.39637e-07)
(-1.41182e-07 0 0 6.93237e-19 2.82364e-07 0 0 0 -1.41182e-07)
(-1.42736e-07 0 0 7.08259e-19 2.85473e-07 0 0 0 -1.42736e-07)
(-1.44302e-07 0 0 7.24179e-19 2.88604e-07 0 0 0 -1.44302e-07)
(-1.45881e-07 0 0 7.4101e-19 2.91763e-07 0 0 0 -1.45881e-07)
(-1.47477e-07 0 0 7.58575e-19 2.94953e-07 0 0 0 -1.47477e-07)
(-1.49091e-07 0 0 7.32851e-19 2.98183e-07 0 0 0 -1.49091e-07)
(-1.5073e-07 0 0 8.3761e-19 3.0146e-07 0 0 0 -1.5073e-07)
(-1.52397e-07 0 0 9.43463e-19 3.04793e-07 0 0 0 -1.52397e-07)
(-1.54096e-07 0 0 9.46233e-19 3.08193e-07 0 0 0 -1.54096e-07)
(-1.55835e-07 0 0 9.22927e-19 3.11671e-07 0 0 0 -1.55835e-07)
(-1.57622e-07 0 0 9.01159e-19 3.15243e-07 0 0 0 -1.57622e-07)
(-1.59464e-07 0 0 1.00972e-18 3.18928e-07 0 0 0 -1.59464e-07)
(-1.61372e-07 0 0 9.9755e-19 3.22743e-07 0 0 0 -1.61372e-07)
(-1.63355e-07 0 0 8.25432e-19 3.26711e-07 0 0 0 -1.63355e-07)
(-1.65426e-07 0 0 8.1095e-19 3.30853e-07 0 0 0 -1.65426e-07)
(-1.67596e-07 0 0 9.01232e-19 3.35192e-07 0 0 0 -1.67596e-07)
(-1.69874e-07 0 0 9.32409e-19 3.39749e-07 0 0 0 -1.69874e-07)
(-1.72274e-07 0 0 8.92033e-19 3.44548e-07 0 0 0 -1.72274e-07)
(-1.74807e-07 -1.7487e-21 0 9.64324e-19 3.49614e-07 0 0 0 -1.74807e-07)
(-1.77486e-07 0 0 1.30607e-18 3.54971e-07 0 0 0 -1.77486e-07)
(-1.80321e-07 0 0 1.18972e-18 3.60643e-07 0 0 0 -1.80321e-07)
(-1.83324e-07 0 0 1.32118e-18 3.66649e-07 0 0 0 -1.83324e-07)
(-1.86504e-07 0 0 1.22803e-18 3.73007e-07 0 0 0 -1.86504e-07)
(-1.89865e-07 0 0 1.15856e-18 3.7973e-07 0 0 0 -1.89865e-07)
(-1.93412e-07 0 0 1.3654e-18 3.86824e-07 0 0 0 -1.93412e-07)
(-1.97144e-07 0 0 1.19831e-18 3.94288e-07 0 0 0 -1.97144e-07)
(-2.01061e-07 0 0 1.23914e-18 4.02123e-07 0 0 0 -2.01061e-07)
(-2.05158e-07 0 0 1.62736e-18 4.10316e-07 0 0 0 -2.05158e-07)
(-2.09426e-07 0 0 1.53769e-18 4.18851e-07 0 0 0 -2.09426e-07)
(-2.13851e-07 0 0 1.32061e-18 4.27701e-07 0 0 0 -2.13851e-07)
(-2.18416e-07 0 0 1.21282e-18 4.36832e-07 0 0 0 -2.18416e-07)
(-2.23098e-07 0 0 1.42695e-18 4.46197e-07 0 0 0 -2.23098e-07)
(-2.27869e-07 0 0 1.89478e-18 4.55737e-07 0 0 0 -2.27869e-07)
(-2.32695e-07 0 0 1.74215e-18 4.6539e-07 0 0 0 -2.32695e-07)
(-2.37544e-07 0 0 1.80806e-18 4.75087e-07 0 0 0 -2.37544e-07)
(-2.42377e-07 0 0 1.87634e-18 4.84755e-07 0 0 0 -2.42377e-07)
(-2.47155e-07 0 0 1.81754e-18 4.94309e-07 0 0 0 -2.47155e-07)
(-2.51834e-07 0 0 2.06014e-18 5.03667e-07 0 0 0 -2.51834e-07)
(-2.56371e-07 0 0 2.30401e-18 5.12742e-07 0 0 0 -2.56371e-07)
(-2.60719e-07 0 0 2.25029e-18 5.21439e-07 0 0 0 -2.60719e-07)
(-2.64832e-07 0 0 2.6144e-18 5.29664e-07 0 0 0 -2.64832e-07)
(-2.68664e-07 3.48925e-21 0 2.31898e-18 5.37329e-07 0 0 0 -2.68664e-07)
(-2.72178e-07 0 0 2.02156e-18 5.44356e-07 0 0 0 -2.72178e-07)
(-2.75337e-07 0 0 2.38278e-18 5.50674e-07 0 0 0 -2.75337e-07)
(-2.78109e-07 0 0 2.45507e-18 5.56218e-07 0 0 0 -2.78109e-07)
(-2.80467e-07 0 0 2.5248e-18 5.60935e-07 0 0 0 -2.80467e-07)
(-2.82391e-07 0 0 2.92515e-18 5.64783e-07 0 0 0 -2.82391e-07)
(-2.83862e-07 0 0 2.21982e-18 5.67724e-07 0 0 0 -2.83862e-07)
(-2.84863e-07 0 0 2.28272e-18 5.69725e-07 0 0 0 -2.84863e-07)
(-2.85387e-07 0 0 3.09573e-18 5.70774e-07 0 0 0 -2.85387e-07)
(-2.85438e-07 0 0 2.79196e-18 5.70876e-07 0 0 0 -2.85438e-07)
(-2.85024e-07 0 0 2.82365e-18 5.70047e-07 0 0 0 -2.85024e-07)
(-2.84155e-07 0 0 3.23248e-18 5.6831e-07 0 0 0 -2.84155e-07)
(-2.82848e-07 0 0 2.77326e-18 5.65697e-07 0 0 0 -2.82848e-07)
(-2.81124e-07 0 0 2.30235e-18 5.62247e-07 0 0 0 -2.81124e-07)
(-2.78996e-07 0 0 2.67549e-18 5.57993e-07 0 0 0 -2.78996e-07)
(-2.76479e-07 0 0 2.64968e-18 5.52959e-07 0 0 0 -2.76479e-07)
(-2.73589e-07 0 0 2.60756e-18 5.47178e-07 0 0 0 -2.73589e-07)
(-2.70349e-07 0 0 2.55021e-18 5.40698e-07 0 0 0 -2.70349e-07)
(-2.66781e-07 0 0 2.47709e-18 5.33562e-07 0 0 0 -2.66781e-07)
(-2.62909e-07 0 0 2.38786e-18 5.25818e-07 0 0 0 -2.62909e-07)
(-2.58765e-07 0 0 2.28234e-18 5.17529e-07 0 0 0 -2.58765e-07)
(-2.54397e-07 0 0 2.16059e-18 5.08795e-07 0 0 0 -2.54397e-07)
(-2.49891e-07 0 0 2.02288e-18 4.99783e-07 0 0 0 -2.49891e-07)
(-2.45459e-07 0 0 1.86978e-18 4.90919e-07 0 0 0 -2.45459e-07)
(-2.41585e-07 0 0 1.70211e-18 4.8317e-07 0 0 0 -2.41585e-07)
(-2.39126e-07 0 0 1.52571e-18 4.78253e-07 0 0 0 -2.39126e-07)
(-2.40615e-07 0 0 2.33749e-18 4.8123e-07 0 0 0 -2.40615e-07)
(-2.53671e-07 0 0 9.58278e-19 5.07343e-07 0 0 0 -2.53671e-07)
(-2.86211e-07 0 0 -4.27889e-19 5.72423e-07 0 0 0 -2.86211e-07)
(-2.08405e-07 0 0 3.56976e-19 4.1681e-07 0 0 0 -2.08405e-07)
(4.2562e-06 0 0 1.82938e-19 -8.5124e-06 0 0 0 4.2562e-06)
(6.55392e-07 0 0 1.1129e-18 -1.31078e-06 0 0 0 6.55392e-07)
(4.81476e-05 0 0 6.21803e-17 -9.62953e-05 0 0 0 4.81476e-05)
(-3.44644e-05 0 0 8.00621e-17 6.89288e-05 0 0 0 -3.44644e-05)
(-2.51286e-05 0 0 9.69421e-17 5.02572e-05 0 0 0 -2.51286e-05)
(3.99802e-05 0 0 9.45744e-17 -7.99603e-05 0 0 0 3.99802e-05)
(3.91699e-06 0 0 9.01992e-17 -7.83399e-06 0 0 0 3.91699e-06)
(-2.99679e-06 0 0 8.44888e-17 5.99359e-06 0 0 0 -2.99679e-06)
(-4.24521e-07 0 0 7.75677e-17 8.49042e-07 0 0 0 -4.24521e-07)
(2.19372e-07 0 0 6.95938e-17 -4.38744e-07 0 0 0 2.19372e-07)
(4.19949e-08 0 0 6.07462e-17 -8.39897e-08 0 0 0 4.19949e-08)
(-1.56189e-08 0 0 5.12092e-17 3.12378e-08 0 0 0 -1.56189e-08)
(-3.97041e-09 0 0 4.11643e-17 7.94083e-09 0 0 0 -3.97041e-09)
(1.06747e-09 0 0 3.07872e-17 -2.13494e-09 0 0 0 1.06747e-09)
(3.63235e-10 0 0 2.02473e-17 -7.2647e-10 0 0 0 3.63235e-10)
(-6.70128e-11 0 0 9.70543e-18 1.34026e-10 0 0 0 -6.70128e-11)
(-3.07471e-11 0 0 -6.88351e-19 6.14942e-11 0 0 0 -3.07471e-11)
(4.55241e-12 0 0 -1.07985e-17 -9.10481e-12 0 0 0 4.55241e-12)
(3.40133e-12 0 0 -2.05065e-17 -6.80266e-12 0 0 0 3.40133e-12)
(9.77644e-13 0 0 -2.97117e-17 -1.95529e-12 0 0 0 9.77644e-13)
(1.43118e-12 0 0 -3.83326e-17 -2.86236e-12 0 0 0 1.43118e-12)
(2.12069e-12 0 0 -4.63058e-17 -4.24138e-12 0 0 0 2.12069e-12)
(2.39183e-12 0 0 -5.3585e-17 -4.78365e-12 0 0 0 2.39183e-12)
(2.15876e-12 0 0 -6.01394e-17 -4.31753e-12 0 0 0 2.15876e-12)
(1.59127e-12 0 0 -6.59512e-17 -3.18254e-12 0 0 0 1.59127e-12)
(1.13218e-12 0 0 -7.10133e-17 -2.26436e-12 0 0 0 1.13218e-12)
(1.02324e-12 0 0 -7.53267e-17 -2.04648e-12 0 0 0 1.02324e-12)
(1.23755e-12 0 0 -7.88981e-17 -2.4751e-12 0 0 0 1.23755e-12)
(1.29837e-12 0 0 -8.17372e-17 -2.59675e-12 0 0 0 1.29837e-12)
(-2.50299e-13 0 0 -8.38545e-17 5.00598e-13 0 0 0 -2.50299e-13)
(-7.97256e-13 0 0 -8.52598e-17 1.59451e-12 0 0 0 -7.97256e-13)
(2.28708e-11 0 0 -8.60111e-17 -4.57415e-11 0 0 0 2.28708e-11)
)
;

boundaryField
{
    inlet
    {
        type            cyclic;
    }
    outlet
    {
        type            cyclic;
    }
    top
    {
        type            extrapolatedCalculated;
        value           uniform (4.56353e-11 0 0 -8.62366e-17 -9.12706e-11 0 0 0 4.56353e-11);
    }
    bottom
    {
        type            extrapolatedCalculated;
        value           uniform (-1.16586e-07 0 0 5.57315e-19 2.33171e-07 0 0 0 -1.16586e-07);
    }
    frontAndBackPlanes
    {
        type            empty;
    }
}


// ************************************************************************* //
