/*--------------------------------*- C++ -*----------------------------------*\
| =========                 |                                                 |
| \\      /  F ield         | OpenFOAM: The Open Source CFD Toolbox           |
|  \\    /   O peration     | Version:  v2006                                 |
|   \\  /    A nd           | Website:  www.openfoam.com                      |
|    \\/     M anipulation  |                                                 |
\*---------------------------------------------------------------------------*/
FoamFile
{
    version     2.0;
    format      ascii;
    class       volVectorField;
    location    "1400";
    object      Ua;
}
// * * * * * * * * * * * * * * * * * * * * * * * * * * * * * * * * * * * * * //

dimensions      [0 1 -1 0 0 0 0];


internalField   nonuniform List<vector> 
120
(
(2.78741e-21 -1.16206e-09 0)
(8.36749e-21 -3.50163e-09 0)
(1.39598e-20 -5.87309e-09 0)
(1.94711e-20 -8.27431e-09 0)
(2.5011e-20 -1.07045e-08 0)
(3.05875e-20 -1.3164e-08 0)
(3.6209e-20 -1.56533e-08 0)
(4.16809e-20 -1.81726e-08 0)
(4.72142e-20 -2.07223e-08 0)
(5.30196e-20 -2.33027e-08 0)
(5.89028e-20 -2.5914e-08 0)
(6.48723e-20 -2.85565e-08 0)
(7.1139e-20 -3.12305e-08 0)
(7.75087e-20 -3.39361e-08 0)
(8.399e-20 -3.66737e-08 0)
(9.05914e-20 -3.94435e-08 0)
(9.73216e-20 -4.22457e-08 0)
(1.04189e-19 -4.50805e-08 0)
(1.11203e-19 -4.79482e-08 0)
(1.18373e-19 -5.08492e-08 0)
(1.25706e-19 -5.37836e-08 0)
(1.33214e-19 -5.67519e-08 0)
(1.40904e-19 -5.97544e-08 0)
(1.48787e-19 -6.27917e-08 0)
(1.57683e-19 -6.58644e-08 0)
(1.66792e-19 -6.89731e-08 0)
(1.76124e-19 -7.21186e-08 0)
(1.85284e-19 -7.53019e-08 0)
(1.94689e-19 -7.85241e-08 0)
(2.0435e-19 -8.17866e-08 0)
(2.13469e-19 -8.50908e-08 0)
(2.22057e-19 -8.84385e-08 0)
(2.30939e-19 -9.18316e-08 0)
(2.40128e-19 -9.52724e-08 0)
(2.49637e-19 -9.87633e-08 0)
(2.59473e-19 -1.02307e-07 0)
(2.70471e-19 -1.05907e-07 0)
(2.82655e-19 -1.09565e-07 0)
(2.94411e-19 -1.13286e-07 0)
(3.0738e-19 -1.17074e-07 0)
(3.19148e-19 -1.20931e-07 0)
(3.32166e-19 -1.24862e-07 0)
(3.44833e-19 -1.28872e-07 0)
(3.57981e-19 -1.32963e-07 0)
(3.71632e-19 -1.3714e-07 0)
(3.86618e-19 -1.41408e-07 0)
(4.00531e-19 -1.45768e-07 0)
(4.15015e-19 -1.50226e-07 0)
(4.29285e-19 -1.54784e-07 0)
(4.45791e-19 -1.59444e-07 0)
(4.62939e-19 -1.64209e-07 0)
(4.80749e-19 -1.69079e-07 0)
(4.99243e-19 -1.74055e-07 0)
(5.1844e-19 -1.79138e-07 0)
(5.38358e-19 -1.84325e-07 0)
(5.59821e-19 -1.89615e-07 0)
(5.82031e-19 -1.95004e-07 0)
(6.04994e-19 -2.0049e-07 0)
(6.28729e-19 -2.06068e-07 0)
(6.51597e-19 -2.11731e-07 0)
(6.75195e-19 -2.17474e-07 0)
(6.99521e-19 -2.2329e-07 0)
(7.24553e-19 -2.29171e-07 0)
(7.50258e-19 -2.35109e-07 0)
(7.76596e-19 -2.41096e-07 0)
(8.01891e-19 -2.47123e-07 0)
(8.29333e-19 -2.53182e-07 0)
(8.57226e-19 -2.59263e-07 0)
(8.85488e-19 -2.65359e-07 0)
(9.14025e-19 -2.71461e-07 0)
(9.42734e-19 -2.77561e-07 0)
(9.69866e-19 -2.83652e-07 0)
(9.96932e-19 -2.89728e-07 0)
(1.0238e-18 -2.95782e-07 0)
(1.05032e-18 -3.0181e-07 0)
(1.07635e-18 -3.07807e-07 0)
(1.10173e-18 -3.1377e-07 0)
(1.1263e-18 -3.19696e-07 0)
(1.1499e-18 -3.25586e-07 0)
(1.17236e-18 -3.3144e-07 0)
(1.19351e-18 -3.37263e-07 0)
(1.2132e-18 -3.43065e-07 0)
(1.23128e-18 -3.48861e-07 0)
(1.2476e-18 -3.5468e-07 0)
(1.26204e-18 -3.60616e-07 0)
(1.27446e-18 -3.66867e-07 0)
(1.28144e-18 -3.73542e-07 0)
(1.28623e-18 -3.80922e-07 0)
(1.28877e-18 -3.92966e-07 0)
(1.28984e-18 -4.31606e-07 0)
(1.29186e-18 -6.85947e-07 0)
(2.8014e-18 -0.000102706 0)
(5.23693e-18 -0.000169168 0)
(7.65013e-18 -0.000188832 0)
(9.97097e-18 -0.000228488 0)
(1.21629e-17 -0.000228603 0)
(1.41959e-17 -0.000228512 0)
(1.60418e-17 -0.00022854 0)
(1.7676e-17 -0.000228548 0)
(1.90794e-17 -0.000228547 0)
(2.02367e-17 -0.000228546 0)
(2.11378e-17 -0.000228546 0)
(2.17762e-17 -0.000228546 0)
(2.21502e-17 -0.000228546 0)
(2.22615e-17 -0.000228546 0)
(2.21157e-17 -0.000228546 0)
(2.17215e-17 -0.000228546 0)
(2.10902e-17 -0.000228546 0)
(2.02356e-17 -0.000228546 0)
(1.91733e-17 -0.000228546 0)
(1.792e-17 -0.000228546 0)
(1.64936e-17 -0.000228546 0)
(1.49125e-17 -0.000228546 0)
(1.31957e-17 -0.000228546 0)
(1.13615e-17 -0.000228546 0)
(9.42879e-18 -0.000228546 0)
(7.41604e-18 -0.000228546 0)
(5.3414e-18 -0.000228518 0)
(3.22277e-18 -0.000228481 0)
(1.07797e-18 -0.000228045 0)
)
;

boundaryField
{
    inlet
    {
        type            cyclic;
    }
    outlet
    {
        type            cyclic;
    }
    top
    {
        type            fixedValue;
        value           uniform (0 0 0);
    }
    bottom
    {
        type            fixedValue;
        value           uniform (0 0 0);
    }
    frontAndBackPlanes
    {
        type            empty;
    }
}


// ************************************************************************* //
