/*--------------------------------*- C++ -*----------------------------------*\
| =========                 |                                                 |
| \\      /  F ield         | OpenFOAM: The Open Source CFD Toolbox           |
|  \\    /   O peration     | Version:  v2006                                 |
|   \\  /    A nd           | Website:  www.openfoam.com                      |
|    \\/     M anipulation  |                                                 |
\*---------------------------------------------------------------------------*/
FoamFile
{
    version     2.0;
    format      ascii;
    class       volVectorField;
    location    "1400";
    object      Ub;
}
// * * * * * * * * * * * * * * * * * * * * * * * * * * * * * * * * * * * * * //

dimensions      [0 1 -1 0 0 0 0];


internalField   nonuniform List<vector> 
120
(
(2.78741e-21 1.74931e-09 0)
(8.36753e-21 5.26521e-09 0)
(1.39699e-20 8.81723e-09 0)
(1.94712e-20 1.24118e-08 0)
(2.5011e-20 1.60488e-08 0)
(3.05878e-20 1.97283e-08 0)
(3.62642e-20 2.34507e-08 0)
(4.16808e-20 2.72164e-08 0)
(4.71408e-20 3.10258e-08 0)
(5.30192e-20 3.48792e-08 0)
(5.89024e-20 3.87771e-08 0)
(6.4771e-20 4.27197e-08 0)
(7.11386e-20 4.67073e-08 0)
(7.75087e-20 5.07403e-08 0)
(8.399e-20 5.48189e-08 0)
(9.05914e-20 5.89435e-08 0)
(9.73216e-20 6.31142e-08 0)
(1.04189e-19 6.73315e-08 0)
(1.11203e-19 7.15955e-08 0)
(1.18373e-19 7.59067e-08 0)
(1.25706e-19 8.02653e-08 0)
(1.33214e-19 8.46719e-08 0)
(1.409e-19 8.9127e-08 0)
(1.47893e-19 9.36312e-08 0)
(1.57679e-19 9.81853e-08 0)
(1.66794e-19 1.0279e-07 0)
(1.76637e-19 1.07447e-07 0)
(1.85286e-19 1.12157e-07 0)
(1.94694e-19 1.16922e-07 0)
(2.0552e-19 1.21744e-07 0)
(2.14685e-19 1.26624e-07 0)
(2.22063e-19 1.31566e-07 0)
(2.30939e-19 1.36571e-07 0)
(2.40128e-19 1.41644e-07 0)
(2.49631e-19 1.46787e-07 0)
(2.58011e-19 1.52005e-07 0)
(2.68965e-19 1.57301e-07 0)
(2.84199e-19 1.62681e-07 0)
(2.92822e-19 1.68149e-07 0)
(3.10694e-19 1.73711e-07 0)
(3.17451e-19 1.79371e-07 0)
(3.33933e-19 1.85135e-07 0)
(3.4484e-19 1.9101e-07 0)
(3.57972e-19 1.97e-07 0)
(3.69702e-19 2.03112e-07 0)
(3.90625e-19 2.0935e-07 0)
(4.00558e-19 2.1572e-07 0)
(4.17129e-19 2.22225e-07 0)
(4.24901e-19 2.28871e-07 0)
(4.45772e-19 2.3566e-07 0)
(4.62938e-19 2.42594e-07 0)
(4.80749e-19 2.49675e-07 0)
(4.99243e-19 2.56904e-07 0)
(5.18429e-19 2.64277e-07 0)
(5.35746e-19 2.71795e-07 0)
(5.59809e-19 2.79453e-07 0)
(5.82031e-19 2.87245e-07 0)
(6.0502e-19 2.95167e-07 0)
(6.34564e-19 3.0321e-07 0)
(6.51623e-19 3.11365e-07 0)
(6.75195e-19 3.19621e-07 0)
(6.99521e-19 3.27969e-07 0)
(7.24553e-19 3.36395e-07 0)
(7.50289e-19 3.44887e-07 0)
(7.8338e-19 3.53432e-07 0)
(7.94938e-19 3.62016e-07 0)
(8.29302e-19 3.70624e-07 0)
(8.57226e-19 3.79243e-07 0)
(8.85488e-19 3.87857e-07 0)
(9.1406e-19 3.96453e-07 0)
(9.50563e-19 4.05018e-07 0)
(9.69902e-19 4.13539e-07 0)
(9.96933e-19 4.22004e-07 0)
(1.0238e-18 4.304e-07 0)
(1.05032e-18 4.38717e-07 0)
(1.07635e-18 4.46942e-07 0)
(1.10173e-18 4.55067e-07 0)
(1.1263e-18 4.63081e-07 0)
(1.1499e-18 4.70977e-07 0)
(1.17236e-18 4.78745e-07 0)
(1.19351e-18 4.86382e-07 0)
(1.2132e-18 4.93883e-07 0)
(1.23128e-18 5.01257e-07 0)
(1.2476e-18 5.08531e-07 0)
(1.26213e-18 5.15763e-07 0)
(1.2949e-18 5.23136e-07 0)
(1.28154e-18 5.31172e-07 0)
(1.28623e-18 5.40536e-07 0)
(1.28878e-18 5.43857e-07 0)
(1.28995e-18 2.81074e-07 0)
(1.31146e-18 5.03782e-07 0)
(2.80539e-18 -3.23925e-06 0)
(5.24137e-18 5.57892e-06 0)
(7.65205e-18 5.29694e-07 0)
(9.97068e-18 -4.18855e-07 0)
(1.21626e-17 -5.79286e-08 0)
(1.41957e-17 3.07204e-08 0)
(1.60414e-17 5.75752e-09 0)
(1.76758e-17 -2.18953e-09 0)
(1.90791e-17 -5.42495e-10 0)
(2.02366e-17 1.53597e-10 0)
(2.11376e-17 5.31421e-11 0)
(2.17761e-17 -6.54411e-12 0)
(2.21501e-17 -1.34992e-12 0)
(2.22614e-17 3.50907e-12 0)
(2.21157e-17 3.26273e-12 0)
(2.17215e-17 2.82612e-12 0)
(2.10902e-17 2.75246e-12 0)
(2.02357e-17 2.67946e-12 0)
(1.91734e-17 2.53776e-12 0)
(1.79201e-17 2.36131e-12 0)
(1.64938e-17 2.17894e-12 0)
(1.49128e-17 2.03746e-12 0)
(1.31958e-17 1.94022e-12 0)
(1.13617e-17 1.86761e-12 0)
(9.42899e-18 1.78671e-12 0)
(7.41625e-18 1.68196e-12 0)
(5.34162e-18 1.59193e-12 0)
(3.223e-18 1.7195e-12 0)
(1.07809e-18 1.71154e-12 0)
)
;

boundaryField
{
    inlet
    {
        type            cyclic;
    }
    outlet
    {
        type            cyclic;
    }
    top
    {
        type            fixedValue;
        value           uniform (0 0 0);
    }
    bottom
    {
        type            fixedValue;
        value           uniform (0 0 0);
    }
    frontAndBackPlanes
    {
        type            empty;
    }
}


// ************************************************************************* //
